<VTKFile type="UnstructuredGrid" version="0.1" byte_order="LittleEndian">
<UnstructuredGrid>
<Piece NumberOfPoints="4225" NumberOfCells="8192">
<Points>
<DataArray type="Float64" NumberOfComponents="3" Format="ascii">  0.0000000000000000e+00  0.0000000000000000e+00  0.0000000000000000e+00   1.5625000000000000e-02  0.0000000000000000e+00  0.0000000000000000e+00   3.1250000000000000e-02  0.0000000000000000e+00  0.0000000000000000e+00   4.6875000000000000e-02  0.0000000000000000e+00  0.0000000000000000e+00   6.2500000000000000e-02  0.0000000000000000e+00  0.0000000000000000e+00   7.8125000000000000e-02  0.0000000000000000e+00  0.0000000000000000e+00   9.3750000000000000e-02  0.0000000000000000e+00  0.0000000000000000e+00   1.0937500000000000e-01  0.0000000000000000e+00  0.0000000000000000e+00   1.2500000000000000e-01  0.0000000000000000e+00  0.0000000000000000e+00   1.4062500000000000e-01  0.0000000000000000e+00  0.0000000000000000e+00   1.5625000000000000e-01  0.0000000000000000e+00  0.0000000000000000e+00   1.7187500000000000e-01  0.0000000000000000e+00  0.0000000000000000e+00   1.8750000000000000e-01  0.0000000000000000e+00  0.0000000000000000e+00   2.0312500000000000e-01  0.0000000000000000e+00  0.0000000000000000e+00   2.1875000000000000e-01  0.0000000000000000e+00  0.0000000000000000e+00   2.3437500000000000e-01  0.0000000000000000e+00  0.0000000000000000e+00   2.5000000000000000e-01  0.0000000000000000e+00  0.0000000000000000e+00   2.6562500000000000e-01  0.0000000000000000e+00  0.0000000000000000e+00   2.8125000000000000e-01  0.0000000000000000e+00  0.0000000000000000e+00   2.9687500000000000e-01  0.0000000000000000e+00  0.0000000000000000e+00   3.1250000000000000e-01  0.0000000000000000e+00  0.0000000000000000e+00   3.2812500000000000e-01  0.0000000000000000e+00  0.0000000000000000e+00   3.4375000000000000e-01  0.0000000000000000e+00  0.0000000000000000e+00   3.5937500000000000e-01  0.0000000000000000e+00  0.0000000000000000e+00   3.7500000000000000e-01  0.0000000000000000e+00  0.0000000000000000e+00   3.9062500000000000e-01  0.0000000000000000e+00  0.0000000000000000e+00   4.0625000000000000e-01  0.0000000000000000e+00  0.0000000000000000e+00   4.2187500000000000e-01  0.0000000000000000e+00  0.0000000000000000e+00   4.3750000000000000e-01  0.0000000000000000e+00  0.0000000000000000e+00   4.5312500000000000e-01  0.0000000000000000e+00  0.0000000000000000e+00   4.6875000000000000e-01  0.0000000000000000e+00  0.0000000000000000e+00   4.8437500000000000e-01  0.0000000000000000e+00  0.0000000000000000e+00   5.0000000000000000e-01  0.0000000000000000e+00  0.0000000000000000e+00   5.1562500000000000e-01  0.0000000000000000e+00  0.0000000000000000e+00   5.3125000000000000e-01  0.0000000000000000e+00  0.0000000000000000e+00   5.4687500000000000e-01  0.0000000000000000e+00  0.0000000000000000e+00   5.6250000000000000e-01  0.0000000000000000e+00  0.0000000000000000e+00   5.7812500000000000e-01  0.0000000000000000e+00  0.0000000000000000e+00   5.9375000000000000e-01  0.0000000000000000e+00  0.0000000000000000e+00   6.0937500000000000e-01  0.0000000000000000e+00  0.0000000000000000e+00   6.2500000000000000e-01  0.0000000000000000e+00  0.0000000000000000e+00   6.4062500000000000e-01  0.0000000000000000e+00  0.0000000000000000e+00   6.5625000000000000e-01  0.0000000000000000e+00  0.0000000000000000e+00   6.7187500000000000e-01  0.0000000000000000e+00  0.0000000000000000e+00   6.8750000000000000e-01  0.0000000000000000e+00  0.0000000000000000e+00   7.0312500000000000e-01  0.0000000000000000e+00  0.0000000000000000e+00   7.1875000000000000e-01  0.0000000000000000e+00  0.0000000000000000e+00   7.3437500000000000e-01  0.0000000000000000e+00  0.0000000000000000e+00   7.5000000000000000e-01  0.0000000000000000e+00  0.0000000000000000e+00   7.6562500000000000e-01  0.0000000000000000e+00  0.0000000000000000e+00   7.8125000000000000e-01  0.0000000000000000e+00  0.0000000000000000e+00   7.9687500000000000e-01  0.0000000000000000e+00  0.0000000000000000e+00   8.1250000000000000e-01  0.0000000000000000e+00  0.0000000000000000e+00   8.2812500000000000e-01  0.0000000000000000e+00  0.0000000000000000e+00   8.4375000000000000e-01  0.0000000000000000e+00  0.0000000000000000e+00   8.5937500000000000e-01  0.0000000000000000e+00  0.0000000000000000e+00   8.7500000000000000e-01  0.0000000000000000e+00  0.0000000000000000e+00   8.9062500000000000e-01  0.0000000000000000e+00  0.0000000000000000e+00   9.0625000000000000e-01  0.0000000000000000e+00  0.0000000000000000e+00   9.2187500000000000e-01  0.0000000000000000e+00  0.0000000000000000e+00   9.3750000000000000e-01  0.0000000000000000e+00  0.0000000000000000e+00   9.5312500000000000e-01  0.0000000000000000e+00  0.0000000000000000e+00   9.6875000000000000e-01  0.0000000000000000e+00  0.0000000000000000e+00   9.8437500000000000e-01  0.0000000000000000e+00  0.0000000000000000e+00   1.0000000000000000e+00  0.0000000000000000e+00  0.0000000000000000e+00   0.0000000000000000e+00  1.5625000000000000e-02  0.0000000000000000e+00   1.5625000000000000e-02  1.5625000000000000e-02  0.0000000000000000e+00   3.1250000000000000e-02  1.5625000000000000e-02  0.0000000000000000e+00   4.6875000000000000e-02  1.5625000000000000e-02  0.0000000000000000e+00   6.2500000000000000e-02  1.5625000000000000e-02  0.0000000000000000e+00   7.8125000000000000e-02  1.5625000000000000e-02  0.0000000000000000e+00   9.3750000000000000e-02  1.5625000000000000e-02  0.0000000000000000e+00   1.0937500000000000e-01  1.5625000000000000e-02  0.0000000000000000e+00   1.2500000000000000e-01  1.5625000000000000e-02  0.0000000000000000e+00   1.4062500000000000e-01  1.5625000000000000e-02  0.0000000000000000e+00   1.5625000000000000e-01  1.5625000000000000e-02  0.0000000000000000e+00   1.7187500000000000e-01  1.5625000000000000e-02  0.0000000000000000e+00   1.8750000000000000e-01  1.5625000000000000e-02  0.0000000000000000e+00   2.0312500000000000e-01  1.5625000000000000e-02  0.0000000000000000e+00   2.1875000000000000e-01  1.5625000000000000e-02  0.0000000000000000e+00   2.3437500000000000e-01  1.5625000000000000e-02  0.0000000000000000e+00   2.5000000000000000e-01  1.5625000000000000e-02  0.0000000000000000e+00   2.6562500000000000e-01  1.5625000000000000e-02  0.0000000000000000e+00   2.8125000000000000e-01  1.5625000000000000e-02  0.0000000000000000e+00   2.9687500000000000e-01  1.5625000000000000e-02  0.0000000000000000e+00   3.1250000000000000e-01  1.5625000000000000e-02  0.0000000000000000e+00   3.2812500000000000e-01  1.5625000000000000e-02  0.0000000000000000e+00   3.4375000000000000e-01  1.5625000000000000e-02  0.0000000000000000e+00   3.5937500000000000e-01  1.5625000000000000e-02  0.0000000000000000e+00   3.7500000000000000e-01  1.5625000000000000e-02  0.0000000000000000e+00   3.9062500000000000e-01  1.5625000000000000e-02  0.0000000000000000e+00   4.0625000000000000e-01  1.5625000000000000e-02  0.0000000000000000e+00   4.2187500000000000e-01  1.5625000000000000e-02  0.0000000000000000e+00   4.3750000000000000e-01  1.5625000000000000e-02  0.0000000000000000e+00   4.5312500000000000e-01  1.5625000000000000e-02  0.0000000000000000e+00   4.6875000000000000e-01  1.5625000000000000e-02  0.0000000000000000e+00   4.8437500000000000e-01  1.5625000000000000e-02  0.0000000000000000e+00   5.0000000000000000e-01  1.5625000000000000e-02  0.0000000000000000e+00   5.1562500000000000e-01  1.5625000000000000e-02  0.0000000000000000e+00   5.3125000000000000e-01  1.5625000000000000e-02  0.0000000000000000e+00   5.4687500000000000e-01  1.5625000000000000e-02  0.0000000000000000e+00   5.6250000000000000e-01  1.5625000000000000e-02  0.0000000000000000e+00   5.7812500000000000e-01  1.5625000000000000e-02  0.0000000000000000e+00   5.9375000000000000e-01  1.5625000000000000e-02  0.0000000000000000e+00   6.0937500000000000e-01  1.5625000000000000e-02  0.0000000000000000e+00   6.2500000000000000e-01  1.5625000000000000e-02  0.0000000000000000e+00   6.4062500000000000e-01  1.5625000000000000e-02  0.0000000000000000e+00   6.5625000000000000e-01  1.5625000000000000e-02  0.0000000000000000e+00   6.7187500000000000e-01  1.5625000000000000e-02  0.0000000000000000e+00   6.8750000000000000e-01  1.5625000000000000e-02  0.0000000000000000e+00   7.0312500000000000e-01  1.5625000000000000e-02  0.0000000000000000e+00   7.1875000000000000e-01  1.5625000000000000e-02  0.0000000000000000e+00   7.3437500000000000e-01  1.5625000000000000e-02  0.0000000000000000e+00   7.5000000000000000e-01  1.5625000000000000e-02  0.0000000000000000e+00   7.6562500000000000e-01  1.5625000000000000e-02  0.0000000000000000e+00   7.8125000000000000e-01  1.5625000000000000e-02  0.0000000000000000e+00   7.9687500000000000e-01  1.5625000000000000e-02  0.0000000000000000e+00   8.1250000000000000e-01  1.5625000000000000e-02  0.0000000000000000e+00   8.2812500000000000e-01  1.5625000000000000e-02  0.0000000000000000e+00   8.4375000000000000e-01  1.5625000000000000e-02  0.0000000000000000e+00   8.5937500000000000e-01  1.5625000000000000e-02  0.0000000000000000e+00   8.7500000000000000e-01  1.5625000000000000e-02  0.0000000000000000e+00   8.9062500000000000e-01  1.5625000000000000e-02  0.0000000000000000e+00   9.0625000000000000e-01  1.5625000000000000e-02  0.0000000000000000e+00   9.2187500000000000e-01  1.5625000000000000e-02  0.0000000000000000e+00   9.3750000000000000e-01  1.5625000000000000e-02  0.0000000000000000e+00   9.5312500000000000e-01  1.5625000000000000e-02  0.0000000000000000e+00   9.6875000000000000e-01  1.5625000000000000e-02  0.0000000000000000e+00   9.8437500000000000e-01  1.5625000000000000e-02  0.0000000000000000e+00   1.0000000000000000e+00  1.5625000000000000e-02  0.0000000000000000e+00   0.0000000000000000e+00  3.1250000000000000e-02  0.0000000000000000e+00   1.5625000000000000e-02  3.1250000000000000e-02  0.0000000000000000e+00   3.1250000000000000e-02  3.1250000000000000e-02  0.0000000000000000e+00   4.6875000000000000e-02  3.1250000000000000e-02  0.0000000000000000e+00  
[...]
<PointData Scalars="scalars">
<DataArray type="Float64" Name="Solution Component - ut" Format="ascii">  0.0000000000000000e+00   0.0000000000000000e+00   0.0000000000000000e+00   0.0000000000000000e+00   0.0000000000000000e+00   0.0000000000000000e+00   0.0000000000000000e+00   0.0000000000000000e+00   0.0000000000000000e+00   0.0000000000000000e+00   0.0000000000000000e+00   0.0000000000000000e+00   0.0000000000000000e+00   0.0000000000000000e+00   0.0000000000000000e+00   0.0000000000000000e+00   0.0000000000000000e+00   0.0000000000000000e+00   0.0000000000000000e+00   0.0000000000000000e+00   0.0000000000000000e+00   0.0000000000000000e+00   0.0000000000000000e+00   0.0000000000000000e+00   0.0000000000000000e+00   0.0000000000000000e+00   0.0000000000000000e+00   0.0000000000000000e+00   0.0000000000000000e+00   0.0000000000000000e+00   0.0000000000000000e+00   0.0000000000000000e+00   0.0000000000000000e+00   0.0000000000000000e+00   0.0000000000000000e+00   0.0000000000000000e+00   0.0000000000000000e+00   0.0000000000000000e+00   0.0000000000000000e+00   0.0000000000000000e+00   0.0000000000000000e+00   0.0000000000000000e+00   0.0000000000000000e+00   0.0000000000000000e+00   0.0000000000000000e+00   0.0000000000000000e+00   0.0000000000000000e+00   0.0000000000000000e+00   0.0000000000000000e+00   0.0000000000000000e+00   0.0000000000000000e+00   0.0000000000000000e+00   0.0000000000000000e+00   0.0000000000000000e+00   0.0000000000000000e+00   0.0000000000000000e+00   0.0000000000000000e+00   0.0000000000000000e+00   0.0000000000000000e+00   0.0000000000000000e+00   0.0000000000000000e+00   0.0000000000000000e+00   0.0000000000000000e+00   0.0000000000000000e+00   0.0000000000000000e+00   0.0000000000000000e+00   2.4076366639015569e-03   4.8094731201957100e-03   7.1997231344832187e-03   9.5726283851184889e-03   1.1922472335510791e-02   1.4243594005761605e-02   1.6530401610461053e-02   1.8777386029788724e-02   2.0979134081465862e-02   2.3130341561585631e-02   2.5225826022904893e-02   2.7260539259813577e-02   2.9229579469904138e-02   3.1128203062842908e-02   3.2951836088094717e-02   3.4696085253970339e-02   3.6356748511451015e-02   3.7929825177292528e-02   3.9411525572021634e-02   4.0798280149605806e-02   4.2086748096802289e-02   4.3273825381469809e-02   4.4356652230453937e-02   4.5332620019031024e-02   4.6199377555313705e-02   4.6954836744478083e-02   4.7597177619167048e-02   4.8124852723951068e-02   4.8536590843283836e-02   4.8831400063971866e-02   4.9008570164780302e-02   4.9067674327418015e-02   4.9008570164780302e-02   4.8831400063971873e-02   4.8536590843283836e-02   4.8124852723951068e-02   4.7597177619167048e-02   4.6954836744478083e-02   4.6199377555313705e-02   4.5332620019031024e-02   4.4356652230453944e-02   4.3273825381469816e-02   4.2086748096802289e-02   4.0798280149605820e-02   3.9411525572021641e-02   3.7929825177292535e-02   3.6356748511451008e-02   3.4696085253970346e-02   3.2951836088094724e-02   3.1128203062842908e-02   2.9229579469904145e-02   2.7260539259813577e-02   2.5225826022904900e-02   2.3130341561585641e-02   2.0979134081465862e-02   1.8777386029788731e-02   1.6530401610461067e-02   1.4243594005761608e-02   1.1922472335510801e-02   9.5726283851185080e-03   7.1997231344832213e-03   4.8094731201957204e-03   2.4076366639015547e-03   6.0090570306677227e-18   0.0000000000000000e+00   4.8094731201957100e-03   9.6073597983847760e-03   1.4382101505314200e-02   1.9122195469994011e-02   2.3816222390880097e-02   2.8452873945971843e-02   3.3020980035550332e-02   3.7509535691926922e-02   4.1907727591374351e-02   4.6204960104370758e-02   5.0390880821399205e-02   5.4455405492809028e-02   5.8388742322656492e-02   6.2181415557998859e-02   6.5824288316813251e-02   6.9308584599545725e-02   7.2625910431262874e-02   7.5768274083472656e-02   7.8728105326898334e-02   8.1498273668823923e-02   8.4072105531075636e-02   8.6443400327256226e-02   8.8606445400500847e-02   9.0556029785767642e-02   9.2287456763509107e-02   9.3796555174480767e-02   9.5079689468429152e-02   9.6133768462450878e-02   9.6956252787922942e-02   9.7545161008064124e-02   9.7899074391389881e-02   9.8017140329560604e-02   9.7899074391389881e-02   9.7545161008064138e-02   9.6956252787922942e-02   9.6133768462450878e-02   9.5079689468429152e-02   9.3796555174480767e-02   9.2287456763509107e-02   9.0556029785767642e-02   8.8606445400500847e-02   8.6443400327256226e-02   8.4072105531075636e-02   8.1498273668823951e-02   7.8728105326898348e-02   7.5768274083472670e-02   7.2625910431262861e-02   6.9308584599545739e-02   6.5824288316813265e-02   6.2181415557998859e-02   5.8388742322656499e-02   5.4455405492809028e-02   5.0390880821399218e-02   4.6204960104370779e-02   4.1907727591374351e-02   3.7509535691926929e-02   3.3020980035550360e-02   2.8452873945971850e-02   2.3816222390880114e-02   1.9122195469994045e-02   1.4382101505314205e-02   9.6073597983847969e-03   4.8094731201957048e-03   1.2003637716617333e-17   0.0000000000000000e+00   7.1997231344832187e-03   1.4382101505314200e-02   2.1529832133895567e-02   2.8625695511075803e-02   3.5652597080455060e-02   4.2593608420668817e-02   4.9432008027437711e-02   5.6151321597135963e-02   6.2735361714831808e-02   6.9168266851187932e-02   7.5434539574274886e-02   8.1519083884242116e-02   8.7407241580903752e-02   9.3084827576626825e-02   9.8538164069449860e-02   1.0375411349410577e-01   1.0872011017156737e-01   1.1342419058086868e-01   1.1785502218027492e-01   1.2200193070836815e-01   1.2585492589927788e-01   1.2940472555010663e-01   1.3264277788256992e-01   1.3556128214497892e-01   1.3815320740493470e-01   1.4041230948746017e-01   1.4233314601776459e-01   1.4391108953240100e-01   1.4514233862723119e-01   1.4602392711534093e-01   1.4655373117284443e-01   1.4673047445536175e-01   1.4655373117284443e-01   1.4602392711534096e-01   1.4514233862723119e-01   1.4391108953240100e-01   1.4233314601776459e-01   1.4041230948746017e-01   1.3815320740493470e-01   1.3556128214497892e-01   1.3264277788256995e-01   1.2940472555010665e-01   1.2585492589927788e-01   1.2200193070836818e-01   1.1785502218027494e-01   1.1342419058086869e-01   1.0872011017156735e-01   1.0375411349410579e-01   9.8538164069449888e-02   9.3084827576626825e-02   8.7407241580903766e-02   8.1519083884242116e-02   7.5434539574274900e-02   6.9168266851187959e-02   6.2735361714831808e-02   5.6151321597135977e-02   4.9432008027437746e-02   4.2593608420668824e-02   3.5652597080455088e-02   2.8625695511075855e-02   2.1529832133895574e-02   1.4382101505314233e-02   7.1997231344832118e-03   1.7969300587913124e-17   0.0000000000000000e+00   9.5726283851184889e-03   1.9122195469994011e-02   2.8625695511075803e-02   3.8060233744356617e-02   4.7403081540864520e-02   5.6631731161920919e-02   6.5723949982254448e-02   7.4657834050342597e-02   8.3411860856949530e-02   9.1964941184735943e-02   1.0029646991403082e-01   1.0838637566236960e-01   1.1621516913821246e-01   1.2376399009235475e-01   1.3101465275391933e-01   1.3794968964147147e-01   1.4455239364371159e-01   1.5080685826836965e-01   1.5669801596233845e-01   1.6221167441072887e-01   1.6733455072739917e-01   1.7205430345459152e-01   1.7635956229458472e-01   1.8023995550173696e-01   1.8368613486892998e-01   1.8668979824821852e-01   1.8924370955143202e-01   1.9134171618254486e-01   1.9297876385981902e-01   1.9415090879201144e-01   1.9485532717931281e-01   1.9509032201612825e-01   1.9485532717931281e-01   1.9415090879201147e-01   1.9297876385981902e-01   1.9134171618254486e-01   1.8924370955143202e-01   1.8668979824821852e-01   1.8368613486892998e-01   1.8023995550173696e-01   1.7635956229458474e-01   1.7205430345459155e-01   1.6733455072739917e-01   1.6221167441072890e-01   1.5669801596233848e-01   1.5080685826836968e-01   1.4455239364371156e-01   1.3794968964147150e-01   1.3101465275391938e-01   1.2376399009235475e-01   1.1621516913821248e-01   1.0838637566236960e-01   1.0029646991403084e-01   9.1964941184735985e-02   8.3411860856949516e-02   7.4657834050342625e-02   6.5723949982254504e-02   5.6631731161920926e-02   4.7403081540864561e-02   3.8060233744356686e-02   2.8625695511075813e-02   1.9122195469994052e-02   9.5726283851184802e-03   2.3891673840167787e-17   0.0000000000000000e+00   1.1922472335510791e-02   2.3816222390880097e-02   3.5652597080455060e-02   4.7403081540864520e-02   5.9039367825822475e-02   7.0533423102450143e-02   8.1857557184825819e-02   9.2984489242068022e-02   1.0388741352024673e-01   1.1454006391979243e-01   1.2491677727283064e-01   1.3499255516800115e-01   1.4474312417382063e-01   1.5414499431550499e-01   1.6317551566437638e-01   1.7181293290352515e-01   1.8003643773827380e-01   1.8782621902518140e-01   1.9516351049882355e-01   2.0203063598136950e-01   2.0841105196604257e-01   2.1428938747187723e-01   2.1965148107375859e-01   2.2448441501853578e-01   2.2877654634502079e-01   2.3251753493290186e-01   2.3569836841299879e-01   2.3831138387885004e-01   2.4035028634732516e-01   2.4181016392379087e-01   2.4268749963529529e-01   2.4298017990326387e-01   2.4268749963529529e-01   2.4181016392379090e-01   2.4035028634732516e-01   2.3831138387885004e-01   2.3569836841299879e-01   2.3251753493290186e-01   2.2877654634502079e-01   2.2448441501853578e-01   2.1965148107375862e-01   2.1428938747187723e-01   2.0841105196604257e-01   2.0203063598136956e-01   1.9516351049882358e-01   1.8782621902518143e-01   1.8003643773827377e-01   1.7181293290352517e-01   1.6317551566437644e-01   1.5414499431550499e-01   1.4474312417382065e-01   1.3499255516800115e-01   1.2491677727283067e-01   1.1454006391979249e-01   1.0388741352024672e-01   9.2984489242068050e-02   8.1857557184825888e-02   7.0533423102450157e-02   5.9039367825822524e-02   4.7403081540864610e-02   3.5652597080455074e-02   2.3816222390880149e-02   1.1922472335510779e-02   2.9756489957478011e-17   0.0000000000000000e+00   1.4243594005761605e-02   2.8452873945971843e-02   4.2593608420668817e-02   5.6631731161920919e-02   7.0533423102450143e-02   8.4265193848727354e-02   9.7793962362263731e-02   1.1108713665472995e-01   1.2411269230491093e-01   1.3683924960834146e-01   1.4923614917376277e-01   1.6127352578428164e-01   1.7292238034529370e-01   1.8415464974584225e-01   1.9494327446511076e-01   2.0526226376117865e-01   2.1508675828499496e-01   2.2439308996872773e-01   2.3315883904421239e-01   2.4136288805413728e-01   2.4898547272584759e-01   2.5600822958520958e-01   2.6241424019582832e-01   2.6818807191704241e-01   2.7331581508250763e-01   2.7778511650980109e-01   2.8158520926031982e-01   2.8470693857777907e-01   2.8714278394282189e-01   2.8888687719060896e-01   2.8993501664774196e-01   2.9028467725446233e-01   2.8993501664774196e-01   2.8888687719060901e-01   2.8714278394282189e-01   2.8470693857777907e-01   2.8158520926031982e-01   2.7778511650980109e-01   2.7331581508250763e-01   2.6818807191704241e-01   2.6241424019582832e-01   2.5600822958520958e-01   2.4898547272584759e-01   2.4136288805413733e-01   2.3315883904421242e-01   2.2439308996872775e-01   2.1508675828499493e-01   2.0526226376117868e-01   1.9494327446511081e-01   1.8415464974584225e-01   1.7292238034529372e-01   1.6127352578428164e-01   1.4923614917376279e-01   1.3683924960834151e-01   1.2411269230491091e-01   1.1108713665472998e-01   9.7793962362263814e-02   8.4265193848727382e-02   7.0533423102450199e-02   5.6631731161921023e-02   4.2593608420668831e-02   2.8452873945971908e-02   1.4243594005761591e-02   3.5549620084119979e-17   0.0000000000000000e+00   1.6530401610461053e-02   3.3020980035550332e-02   4.9432008027437711e-02   6.5723949982254448e-02   8.1857557184825819e-02   9.7793962362263731e-02   1.1349477331863152e-01   1.2892216542510665e-01   1.4403897274282468e-01   1.5880877755888129e-01   1.7319599811979244e-01   1.8716597435105531e-01   2.0068505135630332e-01   2.1372066049489952e-01   2.2624139784264452e-01   2.3821709984658060e-01   2.4961891599163263e-01   2.6041937830402601e-01   2.7059246752404142e-01   2.8011367578869051e-01   2.8896006567330434e-01   2.9711032544979865e-01   3.0454482042849346e-01   3.1124564025980017e-01   3.1719664208182274e-01   3.2238348940992573e-01   3.2679368667458142e-01   3.3041660932429173e-01   3.3324352942106295e-01   3.3526763666677295e-01   3.3648405480977606e-01   3.3688985339222005e-01   3.3648405480977606e-01   3.3526763666677301e-01   3.3324352942106295e-01   3.3041660932429173e-01   3.2679368667458142e-01   3.2238348940992573e-01   3.1719664208182274e-01   3.1124564025980017e-01   3.0454482042849351e-01   2.9711032544979865e-01   2.8896006567330434e-01   2.8011367578869056e-01   2.7059246752404142e-01   2.6041937830402606e-01   2.4961891599163261e-01   2.3821709984658063e-01   2.2624139784264460e-01   2.1372066049489952e-01   2.0068505135630335e-01   1.8716597435105531e-01   1.7319599811979250e-01   1.5880877755888137e-01   1.4403897274282465e-01   1.2892216542510671e-01   1.1349477331863161e-01   9.7793962362263745e-02   8.1857557184825888e-02   6.5723949982254573e-02   4.9432008027437725e-02   3.3020980035550408e-02   1.6530401610461039e-02   4.1257108062200337e-17   0.0000000000000000e+00   1.8777386029788724e-02   3.7509535691926922e-02   5.6151321597135963e-02   7.4657834050342597e-02   9.2984489242068022e-02   1.1108713665472995e-01   1.2892216542510665e-01   1.4644660940672624e-01   1.6361825067907701e-01   1.8039572125427569e-01   1.9673860273617380e-01   2.1260752369181410e-01   2.2796425450066116e-01   2.4277179945310562e-01   2.5699448587636931e-01   2.7059805007309845e-01   2.8354971986561167e-01   2.9581829354694633e-01   3.0737421504850410e-01   3.1818964514320847e-01   3.2823852851264163e-01   3.3749665651658817e-01   3.4594172551377056e-01   3.5355339059327379e-01   3.6031331458721821e-01   3.6620521224660307e-01   3.7121488947389752e-01   3.7533027751786524e-01   3.7854146204824285e-01   3.8084070704022999e-01   3.8222247341125110e-01   3.8268343236508978e-01   3.8222247341125110e-01   3.8084070704023004e-01   3.7854146204824285e-01   3.7533027751786524e-01   3.7121488947389752e-01   3.6620521224660307e-01   3.6031331458721821e-01   3.5355339059327379e-01   3.4594172551377061e-01   3.3749665651658822e-01   3.2823852851264163e-01   3.1818964514320858e-01   3.0737421504850410e-01   2.9581829354694639e-01   2.8354971986561162e-01   2.7059805007309851e-01   2.5699448587636942e-01   2.4277179945310562e-01   2.2796425450066118e-01   2.1260752369181410e-01   1.9673860273617383e-01   1.8039572125427578e-01   1.6361825067907698e-01   1.4644660940672630e-01   1.2892216542510676e-01   1.1108713665472997e-01   9.2984489242068105e-02   7.4657834050342736e-02   5.6151321597135984e-02   3.7509535691927005e-02   1.8777386029788706e-02   4.6865204053262986e-17   0.0000000000000000e+00   2.0979134081465862e-02   4.1907727591374351e-02   6.2735361714831808e-02   8.3411860856949530e-02   1.0388741352024673e-01   1.2411269230491093e-01   1.4403897274282468e-01   1.6361825067907701e-01   1.8280335791817726e-01   2.0154807585636952e-01   2.1980724682629729e-01   2.3753688288577959e-01   2.5469427178861642e-01   2.7123807988213094e-01   2.8712845168355949e-01   3.0232710589540035e-01   3.1679742762841218e-01   3.3050455661008971e-01   3.4341547116611332e-01   3.5549906777245516e-01   3.6672623598649234e-01   3.7706992857661342e-01   3.8650522668136850e-01   3.9500939984118855e-01   4.0256196075805406e-01   4.0914471465119012e-01   4.1474180308988684e-01   4.1933974219784859e-01   4.2292745513703228e-01   4.2549629879272083e-01   4.2704008459554371e-01   4.2755509343028208e-01   4.2704008459554371e-01   4.2549629879272088e-01   4.2292745513703228e-01   4.1933974219784859e-01   4.1474180308988684e-01   4.0914471465119012e-01   4.0256196075805406e-01   3.9500939984118855e-01   3.8650522668136850e-01   3.7706992857661342e-01   3.6672623598649234e-01   3.5549906777245527e-01   3.4341547116611337e-01   3.3050455661008976e-01   3.1679742762841212e-01   3.0232710589540041e-01   2.8712845168355960e-01   2.7123807988213094e-01   2.5469427178861642e-01   2.3753688288577959e-01   2.1980724682629735e-01   2.0154807585636961e-01   1.8280335791817723e-01   1.6361825067907704e-01   1.4403897274282479e-01   1.2411269230491094e-01   1.0388741352024682e-01   8.3411860856949682e-02   6.2735361714831836e-02   4.1907727591374448e-02   2.0979134081465841e-02   5.2360397662854249e-17   0.0000000000000000e+00   2.3130341561585631e-02   4.6204960104370758e-02   6.9168266851187932e-02   9.1964941184735943e-02   1.1454006391979243e-01   1.3683924960834146e-01   1.5880877755888129e-01   1.8039572125427569e-01   2.0154807585636952e-01   2.2221488349019888e-01   2.4234635600597529e-01   2.6189399492309962e-01   2.8081070826724946e-01   2.9905092401907035e-01   3.1657069990116193e-01   3.3332782923887322e-01   3.4928194263987844e-01   3.6439460524757927e-01   3.7862940933404077e-01   3.9195206200939720e-01   4.0433046783642707e-01   4.1573480615127256e-01   4.2613760290403147e-01   4.3551379684614877e-01   4.4384079990516045e-01   4.5109855160133794e-01   4.5726956737514113e-01   4.6233898070905394e-01   4.6629457894232673e-01   4.6912683269234595e-01   4.7082891881175193e-01   4.7139673682599764e-01   4.7082891881175193e-01   4.6912683269234601e-01   4.6629457894232673e-01   4.6233898070905394e-01   4.5726956737514113e-01   4.5109855160133794e-01   4.4384079990516045e-01   4.3551379684614877e-01   4.2613760290403152e-01   4.1573480615127262e-01   4.0433046783642707e-01   3.9195206200939731e-01   3.7862940933404082e-01   3.6439460524757933e-01   3.4928194263987838e-01   3.3332782923887327e-01   3.1657069990116204e-01   2.9905092401907035e-01   2.8081070826724952e-01   2.6189399492309962e-01   2.4234635600597534e-01   2.2221488349019899e-01   2.0154807585636950e-01   1.8039572125427575e-01   1.5880877755888143e-01   1.3683924960834146e-01   1.1454006391979253e-01   9.1964941184736110e-02   6.9168266851187959e-02   4.6204960104370862e-02   2.3130341561585607e-02   5.7729450488246528e-17   0.0000000000000000e+00   2.5225826022904893e-02   5.0390880821399205e-02   7.5434539574274886e-02   1.0029646991403082e-01   1.2491677727283064e-01   1.4923614917376277e-01   1.7319599811979244e-01   1.9673860273617380e-01   2.1980724682629729e-01   2.4234635600597529e-01   2.6430163158700110e-01   2.8562018138744510e-01   3.0625064715355355e-01   3.2614332828628040e-01   3.4525030157438397e-01   3.6352553664563997e-01   3.8092500685804026e-01   3.9740679536382950e-01   4.1293119609086298e-01   4.2746080939801262e-01   4.4096063217417747e-01   4.5339814216384494e-01   4.6474337631605284e-01   4.7496900296800326e-01   4.8405038768943259e-01   4.9196565262911146e-01   4.9869572922050487e-01   5.0422440411961911e-01   5.0853835826436755e-01   5.1162719896135767e-01   5.1348348492279983e-01   5.1410274419322166e-01   5.1348348492279983e-01   5.1162719896135767e-01   5.0853835826436755e-01   5.0422440411961911e-01   4.9869572922050487e-01   4.9196565262911146e-01   4.8405038768943259e-01   4.7496900296800326e-01   4.6474337631605295e-01   4.5339814216384500e-01   4.4096063217417747e-01   4.2746080939801273e-01   4.1293119609086304e-01   3.9740679536382956e-01   3.8092500685804020e-01   3.6352553664564002e-01   3.4525030157438408e-01   3.2614332828628040e-01   3.0625064715355360e-01   2.8562018138744510e-01   2.6430163158700115e-01   2.4234635600597540e-01   2.1980724682629726e-01   1.9673860273617386e-01   1.7319599811979261e-01   1.4923614917376279e-01   1.2491677727283075e-01   1.0029646991403100e-01   7.5434539574274914e-02   5.0390880821399323e-02   2.5225826022904869e-02   6.2959428010909940e-17   0.0000000000000000e+00   2.7260539259813577e-02   5.4455405492809028e-02   8.1519083884242116e-02   1.0838637566236960e-01   1.3499255516800115e-01   1.6127352578428164e-01   1.8716597435105531e-01   2.1260752369181410e-01   2.3753688288577959e-01   2.6189399492309962e-01   2.8562018138744510e-01   3.0865828381745508e-01   3.3095280140647615e-01   3.5245002470886722e-01   3.7309816503075849e-0