<VTKFile type="UnstructuredGrid" version="0.1" byte_order="LittleEndian">
<UnstructuredGrid>
<Piece NumberOfPoints="81" NumberOfCells="128">
<Points>
<DataArray type="Float64" NumberOfComponents="3" Format="ascii">  0.0000000000000000e+00  0.0000000000000000e+00  0.0000000000000000e+00   1.2500000000000000e-01  0.0000000000000000e+00  0.0000000000000000e+00   2.5000000000000000e-01  0.0000000000000000e+00  0.0000000000000000e+00   3.7500000000000000e-01  0.0000000000000000e+00  0.0000000000000000e+00   5.0000000000000000e-01  0.0000000000000000e+00  0.0000000000000000e+00   6.2500000000000000e-01  0.0000000000000000e+00  0.0000000000000000e+00   7.5000000000000000e-01  0.0000000000000000e+00  0.0000000000000000e+00   8.7500000000000000e-01  0.0000000000000000e+00  0.0000000000000000e+00   1.0000000000000000e+00  0.0000000000000000e+00  0.0000000000000000e+00   0.0000000000000000e+00  1.2500000000000000e-01  0.0000000000000000e+00   1.2500000000000000e-01  1.2500000000000000e-01  0.0000000000000000e+00   2.5000000000000000e-01  1.2500000000000000e-01  0.0000000000000000e+00   3.7500000000000000e-01  1.2500000000000000e-01  0.0000000000000000e+00   5.0000000000000000e-01  1.2500000000000000e-01  0.0000000000000000e+00   6.2500000000000000e-01  1.2500000000000000e-01  0.0000000000000000e+00   7.5000000000000000e-01  1.2500000000000000e-01  0.0000000000000000e+00   8.7500000000000000e-01  1.2500000000000000e-01  0.0000000000000000e+00   1.0000000000000000e+00  1.2500000000000000e-01  0.0000000000000000e+00   0.0000000000000000e+00  2.5000000000000000e-01  0.0000000000000000e+00   1.2500000000000000e-01  2.5000000000000000e-01  0.0000000000000000e+00   2.5000000000000000e-01  2.5000000000000000e-01  0.0000000000000000e+00   3.7500000000000000e-01  2.5000000000000000e-01  0.0000000000000000e+00   5.0000000000000000e-01  2.5000000000000000e-01  0.0000000000000000e+00   6.2500000000000000e-01  2.5000000000000000e-01  0.0000000000000000e+00   7.5000000000000000e-01  2.5000000000000000e-01  0.0000000000000000e+00   8.7500000000000000e-01  2.5000000000000000e-01  0.0000000000000000e+00   1.0000000000000000e+00  2.5000000000000000e-01  0.0000000000000000e+00   0.0000000000000000e+00  3.7500000000000000e-01  0.0000000000000000e+00   1.2500000000000000e-01  3.7500000000000000e-01  0.0000000000000000e+00   2.5000000000000000e-01  3.7500000000000000e-01  0.0000000000000000e+00   3.7500000000000000e-01  3.7500000000000000e-01  0.0000000000000000e+00   5.0000000000000000e-01  3.7500000000000000e-01  0.0000000000000000e+00   6.2500000000000000e-01  3.7500000000000000e-01  0.0000000000000000e+00   7.5000000000000000e-01  3.7500000000000000e-01  0.0000000000000000e+00   8.7500000000000000e-01  3.7500000000000000e-01  0.0000000000000000e+00   1.0000000000000000e+00  3.7500000000000000e-01  0.0000000000000000e+00   0.0000000000000000e+00  5.0000000000000000e-01  0.0000000000000000e+00   1.2500000000000000e-01  5.0000000000000000e-01  0.0000000000000000e+00   2.5000000000000000e-01  5.0000000000000000e-01  0.0000000000000000e+00   3.7500000000000000e-01  5.0000000000000000e-01  0.0000000000000000e+00   5.0000000000000000e-01  5.0000000000000000e-01  0.0000000000000000e+00   6.2500000000000000e-01  5.0000000000000000e-01  0.0000000000000000e+00   7.5000000000000000e-01  5.0000000000000000e-01  0.0000000000000000e+00   8.7500000000000000e-01  5.0000000000000000e-01  0.0000000000000000e+00   1.0000000000000000e+00  5.0000000000000000e-01  0.0000000000000000e+00   0.0000000000000000e+00  6.2500000000000000e-01  0.0000000000000000e+00   1.2500000000000000e-01  6.2500000000000000e-01  0.0000000000000000e+00   2.5000000000000000e-01  6.2500000000000000e-01  0.0000000000000000e+00   3.7500000000000000e-01  6.2500000000000000e-01  0.0000000000000000e+00   5.0000000000000000e-01  6.2500000000000000e-01  0.0000000000000000e+00   6.2500000000000000e-01  6.2500000000000000e-01  0.0000000000000000e+00   7.5000000000000000e-01  6.2500000000000000e-01  0.0000000000000000e+00   8.7500000000000000e-01  6.2500000000000000e-01  0.0000000000000000e+00   1.0000000000000000e+00  6.2500000000000000e-01  0.0000000000000000e+00   0.0000000000000000e+00  7.5000000000000000e-01  0.0000000000000000e+00   1.2500000000000000e-01  7.5000000000000000e-01  0.0000000000000000e+00   2.5000000000000000e-01  7.5000000000000000e-01  0.0000000000000000e+00   3.7500000000000000e-01  7.5000000000000000e-01  0.0000000000000000e+00   5.0000000000000000e-01  7.5000000000000000e-01  0.0000000000000000e+00   6.2500000000000000e-01  7.5000000000000000e-01  0.0000000000000000e+00   7.5000000000000000e-01  7.5000000000000000e-01  0.0000000000000000e+00   8.7500000000000000e-01  7.5000000000000000e-01  0.0000000000000000e+00   1.0000000000000000e+00  7.5000000000000000e-01  0.0000000000000000e+00   0.0000000000000000e+00  8.7500000000000000e-01  0.0000000000000000e+00   1.2500000000000000e-01  8.7500000000000000e-01  0.0000000000000000e+00   2.5000000000000000e-01  8.7500000000000000e-01  0.0000000000000000e+00   3.7500000000000000e-01  8.7500000000000000e-01  0.0000000000000000e+00   5.0000000000000000e-01  8.7500000000000000e-01  0.0000000000000000e+00   6.2500000000000000e-01  8.7500000000000000e-01  0.0000000000000000e+00   7.5000000000000000e-01  8.7500000000000000e-01  0.0000000000000000e+00   8.7500000000000000e-01  8.7500000000000000e-01  0.0000000000000000e+00   1.0000000000000000e+00  8.7500000000000000e-01  0.0000000000000000e+00   0.0000000000000000e+00  1.0000000000000000e+00  0.0000000000000000e+00   1.2500000000000000e-01  1.0000000000000000e+00  0.0000000000000000e+00   2.5000000000000000e-01  1.0000000000000000e+00  0.0000000000000000e+00   3.7500000000000000e-01  1.0000000000000000e+00  0.0000000000000000e+00   5.0000000000000000e-01  1.0000000000000000e+00  0.0000000000000000e+00   6.2500000000000000e-01  1.0000000000000000e+00  0.0000000000000000e+00   7.5000000000000000e-01  1.0000000000000000e+00  0.0000000000000000e+00   8.7500000000000000e-01  1.0000000000000000e+00  0.0000000000000000e+00   1.0000000000000000e+00  1.0000000000000000e+00  0.0000000000000000e+00 </DataArray>
</Points>
<PointData Scalars="scalars">
<DataArray type="Float64" Name="Solution Component 0 - ux" Format="ascii">  1.8788686648098677e-04  -2.0532757193563253e-04  -2.0921529245506131e-03  -3.5495703253746826e-03  -3.7666032507440799e-03  -2.4972860581966255e-03  -1.0571622054527264e-03   2.4229248278423736e-03  -5.1220429536078700e-03  -6.6228532592693601e-01  -8.0754560241990569e-01  -1.1763136159008609e+00  -1.5279460131657010e+00  -1.6458030145252369e+00  -1.4591633620562425e+00  -1.0842153971212598e+00  -7.5348121628581499e-01  -6.6964458093126533e-01  -9.4494587123450413e-01  -1.0700485990579023e+00  -1.5357804997847044e+00  -2.0329604315102081e+00  -2.2467210446868870e+00  -2.0436599564968954e+00  -1.5511387369261889e+00  -1.0813764067338849e+00  -9.4373483779689638e-01  -6.7249834312624990e-01  -6.3779923505648373e-01  -8.7599939200071464e-01  -1.2045868328594456e+00  -1.3956761807144624e+00  -1.3217902356118885e+00  -1.0349470774823113e+00  -7.3701330726665837e-01  -6.6256693645933806e-01  -6.1607233826616184e-03   2.4189301000729860e-01   4.3009553880736145e-01   4.9882071821464352e-01   4.5127125311519573e-01   3.3511097128939610e-01   2.0840867556075449e-01   1.0400213155265896e-01   6.8160081103727267e-03   6.6397318848626585e-01   1.0570088249377481e+00   1.6250374130175456e+00   2.0922889046391222e+00   2.2294837086265167e+00   1.9749399480535870e+00   1.4656779682333216e+00   9.5692032144518024e-01   6.7229892709926475e-01   9.4554004931309221e-01   1.3267536454334581e+00   2.0029863806085131e+00   2.6334150994669492e+00   2.8848250062502121e+00   2.6224256290072803e+00   1.9868802945660358e+00   1.3139221309077240e+00   9.4398926712186215e-01   6.7234297997869530e-01   8.8707366526624887e-01   1.3291516865605066e+00   1.7784898072438351e+00   1.9911189372187177e+00   1.8467832553237480e+00   1.4200587911201403e+00   9.3898631539473443e-01   6.6075901517509050e-01   4.9085311938443449e-03  -1.4731624317955456e-03   1.7524255285074118e-03   3.0633988428982475e-03   4.0842320529084365e-03   3.6435398168852859e-03   1.6394833662340144e-03   4.8229630996334032e-04  -3.7728104005372680e-03 </DataArray>
<DataArray type="Float64" Name="Solution Component 1 - uy" Format="ascii"> -3.7727579544156137e-03   6.6075961790168103e-01   9.4398857097383715e-01   6.7229764517984214e-01   6.8145383160953229e-03  -6.6256826459322382e-01  -9.4373550357018621e-01  -6.6964418198201836e-01  -5.1244497008637781e-03   4.8331438604531652e-04   9.3895213220197649e-01   1.3138717388068004e+00   9.5687331434020428e-01   1.0397170625513827e-01  -7.3702295927007389e-01  -1.0813686743871755e+00  -7.5346790129092145e-01   2.4255178111577233e-03   1.6406129392977419e-03   1.4199767938681658e+00   1.9867500059014260e+00   1.4655333020525525e+00   2.0827674976720520e-01  -1.0350478269723440e+00  -1.5512006616026972e+00  -1.0842409046020272e+00  -1.0566535721523872e-03   3.6447773858007833e-03   1.8466714413414576e+00   2.6222397634136860e+00   1.9747169822344690e+00   3.3488644166138098e-01  -1.3219856513305848e+00  -2.0438025459699882e+00  -1.4592392099786486e+00  -2.4959906759609474e-03   4.0854537142029270e-03   1.9910095526221963e+00   2.8846339967040100e+00   2.2292408453637393e+00   4.5101014411924267e-01  -1.3959191492108152e+00  -2.2469122155486745e+00  -1.6459125305187730e+00  -3.7653809104940517e-03   3.0646954995789811e-03   1.7784139190379942e+00   2.6332723899115584e+00   2.0920932508358443e+00   4.9859583429898102e-01  -1.2048102170052071e+00  -2.0331467009103141e+00  -1.5280580742687511e+00  -3.5483370999683629e-03   1.7529347649965445e-03   1.3291260006044232e+00   2.0029241266995039e+00   1.6249362005339576e+00   4.2996305838588800e-01  -8.7614463368513795e-01  -1.5359112588450723e+00  -1.1763958189890331e+00  -2.0910167020499206e-03  -1.4705766817405376e-03   8.8708677983999495e-01   1.3267610568374439e+00   1.0569987652408015e+00   2.4186212321339223e-01  -6.3784667073632528e-01  -1.0700993145140458e+00  -8.0758005388843768e-01  -2.0432493832362391e-04   4.9061288049588115e-03   6.7234337236616826e-01   9.4553937933321897e-01   6.6397185829614080e-01  -6.1621923612585564e-03  -6.7249961997700658e-01  -9.4494656376005470e-01  -6.6228472151236495e-01   1.8795531662650554e-04 </DataArray>
<DataArray type="Float64" Name="Solution Component 3 - p" Format="ascii"> -2.0866970392908984e-01   1.4158894159058261e-01   4.3807772125389732e-01   6.3598717038419494e-01   7.0522036813939881e-01   6.3538117520444670e-01   4.3712724518367285e-01   1.4045372249225779e-01  -2.0896525489413084e-01  -2.1032247369381990e-01   1.0817288409415091e-01   3.7921299894998772e-01   5.6336585567343134e-01   6.2996080096118900e-01   5.6782898679136373e-01   3.8601125323274671e-01   1.1253713806788382e-01  -2.0976571620731202e-01  -2.0973120009144525e-01   3.1191359725340290e-02   2.3645022891968503e-01   3.7715285993381731e-01   4.2907438886955929e-01   3.8288757989912375e-01   2.4502780725027964e-01   3.6076639964982588e-02  -2.0971702829223202e-01  -2.0961146865847879e-01  -8.4216116904352434e-02   2.6476963255168573e-02   1.0405620388834991e-01   1.3434797813859345e-01   1.1121297014233800e-01   3.7434254145898987e-02  -7.6459983746756888e-02  -2.0980916603513516e-01  -2.0961141541018083e-01  -2.1793129725501442e-01  -2.1823607513689164e-01  -2.1493585900604575e-01  -2.1054050201620050e-01  -2.0718477812631064e-01  -2.0607350778069358e-01  -2.0786904682351695e-01  -2.1019569921146547e-01  -2.0997240892183039e-01  -3.4969430011839919e-01  -4.6096973796580198e-01  -5.3229316504610857e-01  -5.5438931325063157e-01  -5.2513803293773476e-01  -4.4946259312711323e-01  -3.3883054948801467e-01  -2.1090059136388800e-01  -2.1060206782597632e-01  -4.6000840621359929e-01  -6.6610590143832016e-01  -8.0151084067804979e-01  -8.4692659255928238e-01  -7.9633255706206030e-01  -6.5753468721319086e-01  -4.5067756800887870e-01  -2.1168724031318303e-01  -2.1147904464014938e-01  -5.3361324108183250e-01  -8.0423307868603922e-01  -9.8383130355044179e-01  -1.0463215437446181e+00  -9.8248608541395788e-01  -8.0189929829076334e-01  -5.2926344862511510e-01  -2.1237607781762152e-01  -2.1211135389067465e-01  -5.6135976995657244e-01  -8.5895756553316893e-01  -1.0577526139362732e+00  -1.1275723108993743e+00  -1.0576437889428054e+00  -8.5883237859732131e-01  -5.6108016688502305e-01  -2.1243470311333476e-01 </DataArray>
</PointData>
<CellData Scalars="scalars">
<DataArray type="Float64" Name="Solution Component 2 - u_eg " Format="ascii">  6.6228696412514207e-02  -7.7163723681785132e-02   7.1380238123076992e-02  -9.4084273560510842e-02   5.4500198224520999e-02  -5.0129118003788456e-02   9.2576229937562701e-03   1.7009414582301909e-02  -3.7243646627900202e-02   7.1912973520651499e-02  -5.8834386144721661e-02   8.2581463837702498e-02  -4.3251004649220569e-02   4.6547652912197243e-02  -1.5730206767105455e-05  -1.9088337005560066e-05   9.6161245289282229e-02  -7.1479378701567564e-02   5.4502132377068989e-02  -5.6698913335756135e-02   1.7113031836371317e-02  -1.4030822102202781e-02  -2.3843217798141188e-02   3.1421151110133383e-02  -4.5717627743342142e-02   5.3862325574724305e-02  -3.6000209204738030e-02   4.0715299964555134e-02  -2.4411459596536664e-05  -2.4353220136130491e-05   4.3209103555923924e-02  -4.6589875112908540e-02   4.9843122473041818e-02  -5.6622767721430656e-02   1.1807434349978710e-02  -1.9349935972916600e-02  -2.2298317032068009e-02   2.0235639955184515e-02  -3.9820774506248234e-02   4.2001057967237014e-02  -3.0796790161869897e-02   3.3710294408868975e-02  -2.2205821911410884e-05  -2.8786082138979255e-05   3.5949045855829989e-02  -4.0772733949029694e-02   5.8780657966542145e-02  -8.2649276445999662e-02  -1.6491144852365722e-02  -1.1181823988344551e-02  -3.3492764308658718e-02   2.1748800311901285e-02  -4.3565187988392436e-02   3.8230565953743911e-02  -3.0304198632899588e-02   2.9451659338153278e-02  -6.1764534677998743e-06  -1.5213990828602733e-05   3.0764916446801516e-02  -3.3757178643528604e-02   4.5670530175622108e-02  -5.3917089849569506e-02   3.7184619989542214e-02  -7.1989235200610624e-02  -7.1249350718120136e-02   3.5392715527070955e-02  -5.5439126199516381e-02   4.4106861871727958e-02  -3.4551608327164238e-02   2.9931149629418275e-02   1.5216852592580464e-05   6.1749520316531474e-06   3.0312796800963368e-02  -2.9460255729744096e-02   3.9805803643175493e-02  -4.2028976660795275e-02   2.3806640930040146e-02  -3.1463294878670507e-02  -9.3141481979574416e-03  -1.7080286719226050e-02  -8.1993001419656722e-02   5.7372783013543871e-02  -4.1571035929392083e-02   3.5123973599328388e-02   2.8795395155508766e-05   2.2199377714212913e-05   3.4598504601554572e-02  -2.9899282652305174e-02   4.3593109999568280e-02  -3.8215599599018553e-02   2.2302431508159509e-02  -2.0239752645080916e-02  -1.7133749215632935e-02   1.4008725138636283e-02  -5.4545994996589499e-02   5.0075676567792465e-02  -4.4885398664632467e-02   4.2559152804239227e-02   2.4368191951557979e-05   2.4397663339274870e-05   4.1628490988788951e-02  -3.5072828213906768e-02   5.5493898426630599e-02  -4.4059778535342493e-02   3.3534912298387815e-02  -2.1712226033532015e-02  -1.1785350575788776e-02   1.9370637585625693e-02  -5.4503939873680858e-02   5.6700748110888571e-02  -7.1407595128127901e-02   9.4057484525090579e-02   1.9085829505755060e-05   1.5718046118877242e-05   4.4927650081173644e-02  -4.2517266968611210e-02   8.2060822155809982e-02  -5.7319058459667380e-02   7.1325603112858793e-02  -3.5333685004265709e-02   1.6562009055348059e-02   1.1238358836219445e-02  -4.9789715157238054e-02   5.6668571866076441e-02  -9.6134437691242344e-02   7.1506685444246251e-02  -6.6230228969227117e-02   7.7165252524613023e-02 </DataArray>
<DataArray type="Float64" Name="Solution Component 4 - p_eg" Format="ascii">  2.0975752453951663e-01   2.1010608494269231e-01   2.1054165021861693e-01   2.1097859433020288e-01   2.1109438086939367e-01   2.1139948715051821e-01   2.1131089232492106e-01   2.1142695394753935e-01   2.1123609220873929e-01   2.1115948707304799e-01   2.1096347385175568e-01   2.1075205393854402e-01   2.1057904141561962e-01   2.1028552001792089e-01   2.1009895149026997e-01   2.0967389102649703e-01   2.0990756618367357e-01   2.1013160502326281e-01   2.1041642759683479e-01   2.1069977367932674e-01   2.1084048969197486e-01   2.1109213618227896e-01   2.1106763117145816e-01   2.1119895816945256e-01   2.1106820115470620e-01   2.1106193567664583e-01   2.1088495534135981e-01   2.1077633215201164e-01   2.1060174850407976e-01   2.1044365418396632e-01   2.1029604757429637e-01   2.1012721536596538e-01   2.1013193777062519e-01   2.1025306383762304e-01   2.1041641033684300e-01   2.1057369779010143e-01   2.1067006556015161e-01   2.1083049852890889e-01   2.1082460612359699e-01   2.1092857694190767e-01   2.1083368381956263e-01   2.1086106841221658e-01   2.1070294494970998e-01   2.1067382743783547e-01   2.1049176095315172e-01   2.1044591621963044e-01   2.1027358420355807e-01   2.1023358341191317e-01   2.1056217683503220e-01   2.1045656633602494e-01   2.1051812665154165e-01   2.1053976900400517e-01   2.1057017484739549e-01   2.1063335359209090e-01   2.1061149255570036e-01   2.1067730934921322e-01   2.1059069835268757e-01   2.1063996696442439e-01   2.1049137710937732e-01   2.1052166630601149e-01   2.1033812571096494e-01   2.1036071749346530e-01   2.1017940910574187e-01   2.1019712827573001e-01   2.1100152938622158e-01   2.1072950960161202e-01   2.1065389864945316e-01   2.1055039054701091e-01   2.1049662414609815e-01   2.1048774317781285e-01   2.1042831117524080e-01   2.1047733482858783e-01   2.1038675776211985e-01   2.1046244869659170e-01   2.1033591816265146e-01   2.1040455464880831e-01   2.1025814694007686e-01   2.1029332352786156e-01   2.1015894143352892e-01   2.1014119655910274e-01   2.1127251339482564e-01   2.1093914976976635e-01   2.1071669592813702e-01   2.1055204793427801e-01   2.1039621999504007e-01   2.1036640289923603e-01   2.1026071867513735e-01   2.1032632978026539e-01   2.1024137099703866e-01   2.1035025525977130e-01   2.1028004690289670e-01   2.1037217268740421e-01   2.1032434515442455e-01   2.1033744769452264e-01   2.1032952838731117e-01   2.1023564353441959e-01   2.1134367456443315e-01   2.1101040544548888e-01   2.1062956542487923e-01   2.1047031654810136e-01   2.1020616203856241e-01   2.1021446673933611e-01   2.1007180911286938e-01   2.1019012704488316e-01   2.1014465900349780e-01   2.1028856336875762e-01   2.1031811594485575e-01   2.1042460266857002e-01   2.1052358360063986e-01   2.1053298192449510e-01   2.1072866046430083e-01   2.1056715561013534e-01   2.1140231620447880e-01   2.1097776803794815e-01   2.1039308258911249e-01   2.1026403946398348e-01   2.0989277479846241e-01   2.0997587288496128e-01   2.0979775353238861e-01   2.1001282401840532e-01   2.1003306213720663e-01   2.1023888212101277e-01   2.1040525656761142e-01   2.1049828343399368e-01   2.1072450803281101e-01   2.1077485950450914e-01   2.1119391539510657e-01   2.1114504871789835e-01 </DataArray>
</CellData>
<Cells>
<DataArray type="Int64" Name="offsets" Format="ascii"> 3  6  9  12  15  18  21  24  27  30  33  36  39  42  45  48  51  54  57  60  63  66  69  72  75  78  81  84  87  90  93  96  99  102  105  108  111  114  117  120  123  126  129  132  135  138  141  144  147  150  153  156  159  162  165  168  171  174  177  180  183  186  189  192  195  198  201  204  207  210  213  216  219  222  225  228  231  234  237  240  243  246  249  252  255  258  261  264  267  270  273  276  279  282  285  288  291  294  297  300  303  306  309  312  315  318  321  324  327  330  333  336  339  342  345  348  351  354  357  360  363  366  369  372  375  378  381  384 </DataArray>
<DataArray type="Int64" Name="connectivity" Format="ascii">
 9  10  0  1  10  0  1  10  11  1  2  11  12  2  11  12  2  3  12  13  3  4  13  3  4  13  14  4  5  14  15  5  14  15  5  6  15  16  6  7  16  6  7  16  17  7  8  17  9  18  19  9  10  19  20  10  19  20  10  11  20  21  11  12  21  11  12  21  22  12  13  22  23  13  22  23  13  14  23  24  14  15  24  14  15  24  25  15  16  25  26  16  25  26  16  17  28  18  27  28  18  19  28  29  19  20  29  19  20  29  30  20  21  30  31  21  30  31  21  22  31  32  22  23  32  22  23  32  33  23  24  33  34  24  33  34  24  25  34  35  25  26  35  25  36  37  27  28  37  27  28  37  38  28  29  38  39  29  38  39  29  30  39  40  30  31  40  30  31  40  41  31  32  41  42  32  41  42  32  33  42  43  33  34  43  33  34  43  44  34  35  44  36  45  46  36  37  46  47  37  46  47  37  38  47  48  38  39  48  38  39  48  49  39  40  49  50  40  49  50  40  41  50  51  41  42  51  41  42  51  52  42  43  52  53  43  52  53  43  44  55  45  54  55  45  46  55  56  46  47  56  46  47  56  57  47  48  57  58  48  57  58  48  49  58  59  49  50  59  49  50  59  60  50  51  60  61  51  60  61  51  52  61  62  52  53  62  52  63  64  54  55  64  54  55  64  65  55  56  65  66  56  65  66  56  57  66  67  57  58  67  57  58  67  68  58  59  68  69  59  68  69  59  60  69  70  60  61  70  60  61  70  71  61  62  71  63  72  73  63  64  73  74  64  73  74  64  65  74  75  65  66  75  65  66  75  76  66  67  76  77  67  76  77  67  68  77  78  68  69  78  68  69  78  79  69  70  79  80  70  79  80  70  71 </DataArray>
<DataArray type="Int64" Name="types" Format="ascii"> 5  5  5  5  5  5  5  5  5  5  5  5  5  5  5  5  5  5  5  5  5  5  5  5  5  5  5  5  5  5  5  5  5  5  5  5  5  5  5  5  5  5  5  5  5  5  5  5  5  5  5  5  5  5  5  5  5  5  5  5  5  5  5  5  5  5  5  5  5  5  5  5  5  5  5  5  5  5  5  5  5  5  5  5  5  5  5  5  5  5  5  5  5  5  5  5  5  5  5  5  5  5  5  5  5  5  5  5  5  5  5  5  5  5  5  5  5  5  5  5  5  5  5  5  5  5  5  5 </DataArray>
</Cells>
</Piece>
</UnstructuredGrid>
</VTKFile>
