<VTKFile type="UnstructuredGrid" version="0.1" byte_order="LittleEndian">
<UnstructuredGrid>
<Piece NumberOfPoints="4225" NumberOfCells="8192">
<Points>
<DataArray type="Float64" NumberOfComponents="3" Format="ascii">  0.0000000000000000e+00  0.0000000000000000e+00  0.0000000000000000e+00   1.5625000000000000e-02  0.0000000000000000e+00  0.0000000000000000e+00   3.1250000000000000e-02  0.0000000000000000e+00  0.0000000000000000e+00   4.6875000000000000e-02  0.0000000000000000e+00  0.0000000000000000e+00   6.2500000000000000e-02  0.0000000000000000e+00  0.0000000000000000e+00   7.8125000000000000e-02  0.0000000000000000e+00  0.0000000000000000e+00   9.3750000000000000e-02  0.0000000000000000e+00  0.0000000000000000e+00   1.0937500000000000e-01  0.0000000000000000e+00  0.0000000000000000e+00   1.2500000000000000e-01  0.0000000000000000e+00  0.0000000000000000e+00   1.4062500000000000e-01  0.0000000000000000e+00  0.0000000000000000e+00   1.5625000000000000e-01  0.0000000000000000e+00  0.0000000000000000e+00   1.7187500000000000e-01  0.0000000000000000e+00  0.0000000000000000e+00   1.8750000000000000e-01  0.0000000000000000e+00  0.0000000000000000e+00   2.0312500000000000e-01  0.0000000000000000e+00  0.0000000000000000e+00   2.1875000000000000e-01  0.0000000000000000e+00  0.0000000000000000e+00   2.3437500000000000e-01  0.0000000000000000e+00  0.0000000000000000e+00   2.5000000000000000e-01  0.0000000000000000e+00  0.0000000000000000e+00   2.6562500000000000e-01  0.0000000000000000e+00  0.0000000000000000e+00   2.8125000000000000e-01  0.0000000000000000e+00  0.0000000000000000e+00   2.9687500000000000e-01  0.0000000000000000e+00  0.0000000000000000e+00   3.1250000000000000e-01  0.0000000000000000e+00  0.0000000000000000e+00   3.2812500000000000e-01  0.0000000000000000e+00  0.0000000000000000e+00   3.4375000000000000e-01  0.0000000000000000e+00  0.0000000000000000e+00   3.5937500000000000e-01  0.0000000000000000e+00  0.0000000000000000e+00   3.7500000000000000e-01  0.0000000000000000e+00  0.0000000000000000e+00   3.9062500000000000e-01  0.0000000000000000e+00  0.0000000000000000e+00   4.0625000000000000e-01  0.0000000000000000e+00  0.0000000000000000e+00   4.2187500000000000e-01  0.0000000000000000e+00  0.0000000000000000e+00   4.3750000000000000e-01  0.0000000000000000e+00  0.0000000000000000e+00   4.5312500000000000e-01  0.0000000000000000e+00  0.0000000000000000e+00   4.6875000000000000e-01  0.0000000000000000e+00  0.0000000000000000e+00   4.8437500000000000e-01  0.0000000000000000e+00  0.0000000000000000e+00   5.0000000000000000e-01  0.0000000000000000e+00  0.0000000000000000e+00   5.1562500000000000e-01  0.0000000000000000e+00  0.0000000000000000e+00   5.3125000000000000e-01  0.0000000000000000e+00  0.0000000000000000e+00   5.4687500000000000e-01  0.0000000000000000e+00  0.0000000000000000e+00   5.6250000000000000e-01  0.0000000000000000e+00  0.0000000000000000e+00   5.7812500000000000e-01  0.0000000000000000e+00  0.0000000000000000e+00   5.9375000000000000e-01  0.0000000000000000e+00  0.0000000000000000e+00   6.0937500000000000e-01  0.0000000000000000e+00  0.0000000000000000e+00   6.2500000000000000e-01  0.0000000000000000e+00  0.0000000000000000e+00   6.4062500000000000e-01  0.0000000000000000e+00  0.0000000000000000e+00   6.5625000000000000e-01  0.0000000000000000e+00  0.0000000000000000e+00   6.7187500000000000e-01  0.0000000000000000e+00  0.0000000000000000e+00   6.8750000000000000e-01  0.0000000000000000e+00  0.0000000000000000e+00   7.0312500000000000e-01  0.0000000000000000e+00  0.0000000000000000e+00   7.1875000000000000e-01  0.0000000000000000e+00  0.0000000000000000e+00   7.3437500000000000e-01  0.0000000000000000e+00  0.0000000000000000e+00   7.5000000000000000e-01  0.0000000000000000e+00  0.0000000000000000e+00   7.6562500000000000e-01  0.0000000000000000e+00  0.0000000000000000e+00   7.8125000000000000e-01  0.0000000000000000e+00  0.0000000000000000e+00   7.9687500000000000e-01  0.0000000000000000e+00  0.0000000000000000e+00   8.1250000000000000e-01  0.0000000000000000e+00  0.0000000000000000e+00   8.2812500000000000e-01  0.0000000000000000e+00  0.0000000000000000e+00   8.4375000000000000e-01  0.0000000000000000e+00  0.0000000000000000e+00   8.5937500000000000e-01  0.0000000000000000e+00  0.0000000000000000e+00   8.7500000000000000e-01  0.0000000000000000e+00  0.0000000000000000e+00   8.9062500000000000e-01  0.0000000000000000e+00  0.0000000000000000e+00   9.0625000000000000e-01  0.0000000000000000e+00  0.0000000000000000e+00   9.2187500000000000e-01  0.0000000000000000e+00  0.0000000000000000e+00   9.3750000000000000e-01  0.0000000000000000e+00  0.0000000000000000e+00   9.5312500000000000e-01  0.0000000000000000e+00  0.0000000000000000e+00   9.6875000000000000e-01  0.0000000000000000e+00  0.0000000000000000e+00   9.8437500000000000e-01  0.0000000000000000e+00  0.0000000000000000e+00   1.0000000000000000e+00  0.0000000000000000e+00  0.0000000000000000e+00   0.0000000000000000e+00  1.5625000000000000e-02  0.0000000000000000e+00   1.5625000000000000e-02  1.5625000000000000e-02  0.0000000000000000e+00   3.1250000000000000e-02  1.5625000000000000e-02  0.0000000000000000e+00   4.6875000000000000e-02  1.5625000000000000e-02  0.0000000000000000e+00   6.2500000000000000e-02  1.5625000000000000e-02  0.0000000000000000e+00   7.8125000000000000e-02  1.5625000000000000e-02  0.0000000000000000e+00   9.3750000000000000e-02  1.5625000000000000e-02  0.0000000000000000e+00   1.0937500000000000e-01  1.5625000000000000e-02  0.0000000000000000e+00   1.2500000000000000e-01  1.5625000000000000e-02  0.0000000000000000e+00   1.4062500000000000e-01  1.5625000000000000e-02  0.0000000000000000e+00   1.5625000000000000e-01  1.5625000000000000e-02  0.0000000000000000e+00   1.7187500000000000e-01  1.5625000000000000e-02  0.0000000000000000e+00   1.8750000000000000e-01  1.5625000000000000e-02  0.0000000000000000e+00   2.0312500000000000e-01  1.5625000000000000e-02  0.0000000000000000e+00   2.1875000000000000e-01  1.5625000000000000e-02  0.0000000000000000e+00   2.3437500000000000e-01  1.5625000000000000e-02  0.0000000000000000e+00   2.5000000000000000e-01  1.5625000000000000e-02  0.0000000000000000e+00   2.6562500000000000e-01  1.5625000000000000e-02  0.0000000000000000e+00   2.8125000000000000e-01  1.5625000000000000e-02  0.0000000000000000e+00   2.9687500000000000e-01  1.5625000000000000e-02  0.0000000000000000e+00   3.1250000000000000e-01  1.5625000000000000e-02  0.0000000000000000e+00   3.2812500000000000e-01  1.5625000000000000e-02  0.0000000000000000e+00   3.4375000000000000e-01  1.5625000000000000e-02  0.0000000000000000e+00   3.5937500000000000e-01  1.5625000000000000e-02  0.0000000000000000e+00   3.7500000000000000e-01  1.5625000000000000e-02  0.0000000000000000e+00   3.9062500000000000e-01  1.5625000000000000e-02  0.0000000000000000e+00   4.0625000000000000e-01  1.5625000000000000e-02  0.0000000000000000e+00   4.2187500000000000e-01  1.5625000000000000e-02  0.0000000000000000e+00   4.3750000000000000e-01  1.5625000000000000e-02  0.0000000000000000e+00   4.5312500000000000e-01  1.5625000000000000e-02  0.0000000000000000e+00   4.6875000000000000e-01  1.5625000000000000e-02  0.0000000000000000e+00   4.8437500000000000e-01  1.5625000000000000e-02  0.0000000000000000e+00   5.0000000000000000e-01  1.5625000000000000e-02  0.0000000000000000e+00   5.1562500000000000e-01  1.5625000000000000e-02  0.0000000000000000e+00   5.3125000000000000e-01  1.5625000000000000e-02  0.0000000000000000e+00   5.4687500000000000e-01  1.5625000000000000e-02  0.0000000000000000e+00   5.6250000000000000e-01  1.5625000000000000e-02  0.0000000000000000e+00   5.7812500000000000e-01  1.5625000000000000e-02  0.0000000000000000e+00   5.9375000000000000e-01  1.5625000000000000e-02  0.0000000000000000e+00   6.0937500000000000e-01  1.5625000000000000e-02  0.0000000000000000e+00   6.2500000000000000e-01  1.5625000000000000e-02  0.0000000000000000e+00   6.4062500000000000e-01  1.5625000000000000e-02  0.0000000000000000e+00   6.5625000000000000e-01  1.5625000000000000e-02  0.0000000000000000e+00   6.7187500000000000e-01  1.5625000000000000e-02  0.0000000000000000e+00   6.8750000000000000e-01  1.5625000000000000e-02  0.0000000000000000e+00   7.0312500000000000e-01  1.5625000000000000e-02  0.0000000000000000e+00   7.1875000000000000e-01  1.5625000000000000e-02  0.0000000000000000e+00   7.3437500000000000e-01  1.5625000000000000e-02  0.0000000000000000e+00   7.5000000000000000e-01  1.5625000000000000e-02  0.0000000000000000e+00   7.6562500000000000e-01  1.5625000000000000e-02  0.0000000000000000e+00   7.8125000000000000e-01  1.5625000000000000e-02  0.0000000000000000e+00   7.9687500000000000e-01  1.5625000000000000e-02  0.0000000000000000e+00   8.1250000000000000e-01  1.5625000000000000e-02  0.0000000000000000e+00   8.2812500000000000e-01  1.5625000000000000e-02  0.0000000000000000e+00   8.4375000000000000e-01  1.5625000000000000e-02  0.0000000000000000e+00   8.5937500000000000e-01  1.5625000000000000e-02  0.0000000000000000e+00   8.7500000000000000e-01  1.5625000000000000e-02  0.0000000000000000e+00   8.9062500000000000e-01  1.5625000000000000e-02  0.0000000000000000e+00   9.0625000000000000e-01  1.5625000000000000e-02  0.0000000000000000e+00   9.2187500000000000e-01  1.5625000000000000e-02  0.0000000000000000e+00   9.3750000000000000e-01  1.5625000000000000e-02  0.0000000000000000e+00   9.5312500000000000e-01  1.5625000000000000e-02  0.0000000000000000e+00   9.6875000000000000e-01  1.5625000000000000e-02  0.0000000000000000e+00   9.8437500000000000e-01  1.5625000000000000e-02  0.0000000000000000e+00   1.0000000000000000e+00  1.5625000000000000e-02  0.0000000000000000e+00   0.0000000000000000e+00  3.1250000000000000e-02  0.0000000000000000e+00   1.5625000000000000e-02  3.1250000000000000e-02  0.0000000000000000e+00   3.1250000000000000e-02  3.1250000000000000e-02  0.0000000000000000e+00   4.6875000000000000e-02  3.1250000000000000e-02  0.0000000000000000e+00  
[...]
<PointData Scalars="scalars">
<DataArray type="Float64" Name="Solution Component 0 - ux" Format="ascii"> -2.6785111341213490e-05   2.6351096581731734e-06  -3.8294026944178498e-06  -1.3425444650320379e-06  -1.1391965307029621e-06  -4.5927529675370194e-07   2.8038775093162184e-08   4.7750762092486330e-07   8.4952976244614289e-07   1.1502150627852125e-06   1.3759643368460172e-06   1.5261838367922849e-06   1.6005030972527723e-06   1.5994192050878074e-06   1.5241726207252094e-06   1.3767712444823672e-06   1.1599701504744120e-06   8.7724833701724522e-07   5.3277553695395465e-07   1.3137128270409821e-07  -3.2154321306180176e-07  -8.1999965594977519e-07  -1.3575432000373426e-06  -1.9272979441146039e-06  -2.5220368461977866e-06  -3.1342554470253094e-06  -3.7562482572714954e-06  -4.3801873189243526e-06  -4.9982022822559660e-06  -5.6024607124025074e-06  -6.1852482265872004e-06  -6.7390477720626875e-06  -7.2566167319219326e-06  -7.7310615604473027e-06  -8.1559092905556203e-06  -8.5251746723389781e-06  -8.8334227756933584e-06  -9.0758264797249226e-06  -9.2482177910826015e-06  -9.3471329653616779e-06  -9.3698509887381574e-06  -9.3144246327099107e-06  -9.1797042060465908e-06  -8.9653537324709436e-06  -8.6718591106670758e-06  -8.3005285238071104e-06  -7.8534850250724133e-06  -7.3336512448678669e-06  -6.7447266099849632e-06  -6.0911572227620606e-06  -5.3780986866791069e-06  -4.6113725812817960e-06  -3.7974160679264671e-06  -2.9432281524268107e-06  -2.0563043423578435e-06  -1.1445783105245782e-06  -2.1638298476289021e-07   7.2006194469840536e-07   1.6534828834278524e-06   2.5899441344269920e-06   3.4380668188720897e-06   4.6243807336508385e-06   3.9470203198363038e-06   1.2056096459002042e-05  -1.0800037218517725e-05  -8.8738450657359386e-02  -8.8093647629404179e-02  -8.8301393356570168e-02  -8.9353950119641923e-02  -9.1234106284158831e-02  -9.3914687922337328e-02  -9.7361419041241820e-02  -1.0153278197297499e-01  -1.0638058369264551e-01  -1.1185037268346511e-01  -1.1788196542816905e-01  -1.2441001838507625e-01  -1.3136465648805090e-01  -1.3867214772600264e-01  -1.4625561757881658e-01  -1.5403579556506955e-01  -1.6193178622854626e-01  -1.6986185669120557e-01  -1.7774423284402588e-01  -1.8549789623008572e-01  -1.9304337372305866e-01  -2.0030351221687220e-01  -2.0720423071770311e-01  -2.1367524247524336e-01  -2.1965074010001182e-01  -2.2507003698303699e-01  -2.2987815877248227e-01  -2.3402637915421270e-01  -2.3747269472429189e-01  -2.4018223434114311e-01  -2.4212759898275388e-01  -2.4328912880389272e-01  -2.4365509480069908e-01  -2.4322181322003089e-01  -2.4199368159303491e-01  -2.3998313603719715e-01  -2.3721053023145411e-01  -2.3370393722011149e-01  -2.2949887595290205e-01  -2.2463796519367521e-01  -2.1917050812557151e-01  -2.1315201165370293e-01  -2.0664364503313506e-01  -1.9971164302848562e-01  -1.9242665934658168e-01  -1.8486307655571704e-01  -1.7709827911369166e-01  -1.6921189647329574e-01  -1.6128502350428847e-01  -1.5339942566538223e-01  -1.4563673647450462e-01  -1.3807765485153170e-01  -1.3080114984195773e-01  -1.2388368005864597e-01  -1.1739843488798223e-01  -1.1141460407893010e-01  -1.0599668170685879e-01  -1.0120380966229212e-01  -9.7089164549375648e-02  -9.3699390159906804e-02  -9.1074076416077690e-02  -8.9245272249762767e-02  -8.8237078775078165e-02  -8.8064841877150274e-02  -8.8736460640666051e-02  -1.7662963365972492e-01  -1.7533703647088664e-01  -1.7574091406950551e-01  -1.7782693413553005e-01  -1.8155799734061978e-01  -1.8688105564195651e-01  -1.9372825600021476e-01  -2.0201739220170872e-01  -2.1165282915579378e-01  -2.2252641578406662e-01  -2.3451853918143145e-01  -2.4749928083521339e-01  -2.6132967628854820e-01  -2.7586306434648095e-01  -2.9094651321950060e-01  -3.0642230922731284e-01  -3.2212949320001200e-01  -3.3790542924410005e-01  -3.5358739029928171e-01  -3.6901414481349226e-01  -3.8402752891484049e-01  -3.9847398864939471e-01  -4.1220607718874447e-01  -4.2508389238336131e-01  -4.3697644063998514e-01  -4.4776291384082029e-01  -4.5733386688279321e-01  -4.6559228438607453e-01  -4.7245452620966005e-01  -4.7785114259351491e-01  -4.8172755100860870e-01  -4.8404456814463148e-01  -4.8477879186999090e-01  -4.8392282944553833e-01  -4.8148536976781214e-01  -4.7749109892610075e-01  -4.7198045986600939e-01  -4.6500925846441954e-01  -4.5664811980333031e-01  -4.4698179987000070e-01  -4.3610835931015401e-01  -4.2413820718907069e-01  -4.1119302396140206e-01  -3.9740457401437795e-01  -3.8291341920526917e-01  -3.6786754575467989e-01  -3.5242091767977890e-01  -3.3673197063732885e-01  -3.2096206059034649e-01  -3.0527388210820666e-01  -2.8982987134626953e-01  -2.7479060882360229e-01  -2.6031323701369574e-01  -2.4654990747511257e-01  -2.3364627176887628e-01  -2.2174002971433332e-01  -2.1095954762196420e-01  -2.0142255800505102e-01  -1.9323495096178284e-01  -1.8648966591171445e-01  -1.8126569150053254e-01  -1.7762717851402438e-01  -1.7562267427211964e-01  -1.7528442011722925e-01  -1.7662934516999818e-01  -2.6281584287947379e-01  -2.6087560056302139e-01  -2.6145672589679930e-01  -2.6453850478460628e-01  -2.7006603335236629e-01  -2.7796104962122570e-01  -2.8812308113580731e-01  -3.0043031508305501e-01  -3.1474084876359265e-01  -3.3089408579219581e-01  -3.4871231300137445e-01  -3.6800243623215634e-01  -3.8855786447874258e-01  -4.1016052500016403e-01  -4.3258299059885813e-01  -4.5559069844783828e-01  -4.7894423877497261e-01  -5.0240169093883580e-01  -5.2572098396301004e-01  -5.4866225838232152e-01  -5.7099020627655617e-01  -5.9247636662011172e-01  -6.1290135354742825e-01  -6.3205699581373243e-01  -6.4974836662292756e-01  -6.6579568408082868e-01  -6.8003606379936621e-01  -6.9232510662922708e-01  -7.0253830610728574e-01  -7.1057226195394707e-01  -7.1634568784514596e-01  -7.1980020367976882e-01  -7.2090090464561263e-01  -7.1963670155404535e-01  -7.1602042912670283e-01  -7.1008872115561927e-01  -7.0190165371703550e-01  -6.9154215985943313e-01  -6.7911522138752267e-01  -6.6474684551973118e-01  -6.4858283627044500e-01  -6.3078737238168381e-01  -6.1154140549401714e-01  -5.9104089397230519e-01  -5.6949488937379289e-01  -5.4712349395487969e-01  -5.2415570883541762e-01  -5.0082719346566729e-01  -4.7737795786051956e-01  -4.5405000966427744e-01  -4.3108497848145749e-01  -4.0872174004259609e-01  -3.8719406266401724e-01  -3.6672829810504698e-01  -3.4754113831294675e-01  -3.2983745868236919e-01  -3.1380826735256073e-01  -2.9962877872064714e-01  -2.8745662779603848e-01  -2.7743024018326662e-01  -2.6966737017072723e-01  -2.6426381468973920e-01  -2.6129230138413378e-01  -2.6080152833130976e-01  -2.6281407459747957e-01  -3.4647126467136019e-01  -3.4387678826571122e-01  -3.4460499974891984e-01  -3.4862764599335788e-01  -3.5587255712865029e-01  -3.6623726976460885e-01  -3.7958989442794011e-01  -3.9577038597138714e-01  -4.1459214356409008e-01  -4.3584385670489401e-01  -4.5929158965309624e-01  -4.8468107934555138e-01  -5.1174022750503623e-01  -5.4018176393237716e-01  -5.6970605607714042e-01  -6.0000403800136415e-01  -6.3076023042468654e-01  -6.6165582249467236e-01  -6.9237178525856125e-01  -7.2259198648149636e-01  -7.5200627645082030e-01  -7.8031351470696708e-01  -8.0722450823449887e-01  -8.3246483253326109e-01  -8.5577750814835507e-01  -8.7692550665357571e-01  -8.9569406175712341e-01  -9.1189276310037626e-01  -9.2535741243029646e-01  -9.3595162414090360e-01  -9.4356815466012056e-01  -9.4812994778086357e-01  -9.4959088579253892e-01  -9.4793623911647018e-01  -9.4318281005937354e-01  -9.3537876926218144e-01  -9.2460318639072769e-01  -9.1096525956305352e-01  -8.9460325092183268e-01  -8.7568313859522162e-01  -8.5439699802041014e-01  -8.3096112821589807e-01  -8.0561394104256190e-01  -7.7861363376902160e-01  -7.5023566733767677e-01  -7.2077007458451003e-01  -6.9051862428312294e-01  -6.5979186824581593e-01  -6.2890609980352563e-01  -5.9818025279337239e-01  -5.6793277069320836e-01  -5.3847847575121877e-01  -5.1012546786427704e-01  -4.8317208255091842e-01  -4.5790393665342871e-01  -4.3459108939896884e-01  -4.1348534514927160e-01  -3.9481772259137365e-01  -3.7879611325408991e-01  -3.6560314994065973e-01  -3.5539430263344174e-01  -3.4829621454113008e-01  -3.4440528227071399e-01  -3.4378651273249689e-01  -3.4646926514489956e-01  -4.2679025653112396e-01  -4.2353397074213234e-01  -4.2436910896081254e-01  -4.2926044808644509e-01  -4.3811951540510569e-01  -4.5082065447055875e-01  -4.6720197144026077e-01  -4.8706687687297218e-01  -5.1018602714329930e-01  -5.3629959101676761e-01  -5.6511981543021805e-01  -5.9633385959490648e-01  -6.2960686956459710e-01  -6.6458526368847304e-01  -7.0090019761923228e-01  -7.3817117563387313e-01  -7.7600977343995625e-01  -8.1402343642612773e-01  -8.5181931650056553e-01  -8.8900811024668147e-01  -9.2520786109853304e-01  -9.6004768858520007e-01  -9.9317140841456275e-01  -1.0242410082404465e+00  -1.0529399453666477e+00  -1.0789762343866129e+00  -1.1020852948064337e+00  -1.1220325310291168e+00  -1.1386156196845898e+00  -1.1516664821304379e+00  -1.1610529229947739e+00  -1.1666799188739632e+00  -1.1684905446846905e+00  -1.1664665286698492e+00  -1.1606284306548380e+00  -1.1510354417922959e+00  -1.1377848076855546e+00  -1.1210108804239722e+00  -1.1008838086454344e+00  -1.0776078782304395e+00  -1.0514195196059231e+00  -1.0225850008495498e+00  -9.9139782880843952e-01  -9.5817588325736913e-01  -9.2325831168407690e-01  -8.8700221458160655e-01  -8.4977915312821717e-01  -8.1197151282037661e-01  -7.7396875798021303e-01  -7.3616361306723643e-01  -6.9894820737611907e-01  -6.6271021999416124e-01  -6.2782906181120879e-01  -5.9467213092916071e-01  -5.6359117701575756e-01  -5.3491880898235245e-01  -5.0896517885666892e-01  -4.8601487286699113e-01  -4.6632403849760007e-01  -4.5011777350300325e-01  -4.3758779928644798e-01  -4.2889043602044513e-01  -4.2414488883155793e-01  -4.2343191863686763e-01  -4.2678725430044279e-01  -5.0299906771683189e-01  -4.9907187379163503e-01  -4.9996514443255691e-01  -5.0563711488162422e-01  -5.1598413669334264e-01  -5.3085872024187575e-01  -5.5007065892331952e-01  -5.7338884865280704e-01  -6.0054355458111397e-01  -6.3122907250390980e-01  -6.6510674754763544e-01  -7.0180831358367313e-01  -7.4093951831191540e-01  -7.8208399786171012e-01  -8.2480736317595471e-01  -8.6866145862803845e-01  -9.1318875168760272e-01  -9.5792681114220068e-01  -1.0024128304820532e+00  -1.0461881525861714e+00  -1.0888027518145054e+00  -1.1298196300217587e+00  -1.1688190838462091e+00  -1.2054028018769480e+00  -1.2391977519658903e+00  -1.2698598209945990e+00  -1.2970771718075735e+00  -1.3205732847766869e+00  -1.3401096545219524e+00  -1.3554881156511749e+00  -1.3665527749812636e+00  -1.3731915315140355e+00  -1.3753371694228229e+00  -1.3729680134421929e+00  -1.3661081402837216e+00  -1.3548271439867310e+00  -1.3392394574279187e+00  -1.3195032365001167e+00  -1.2958188176889780e+00  -1.2684267638978335e+00  -1.2376055173424581e+00  -1.2036686821236338e+00  -1.1669619626561722e+00  -1.1278597874450405e+00  -1.0867616507237103e+00  -1.0440882071786011e+00  -1.0002771573463107e+00  -9.5577896326767720e-01  -9.1105243559071880e-01  -8.6656023451906772e-01  -8.2276432779532682e-01  -7.8012144927299132e-01  -7.3907860157013183e-01  -7.0006864581704720e-01  -6.6350602059960750e-01  -6.2978263087800124e-01  -5.9926394593243870e-01  -5.7228534322694269e-01  -5.4914873246667661e-01  -5.3011949096091138e-01  -5.1542373750592763e-01  -5.0524596718349435e-01  -4.9972706242273823e-01  -4.9896279305857399e-01  -5.0299499781783541e-01  -5.7436386651916616e-01  -5.6975547130522508e-01  -5.7064992265151504e-01  -5.7699952081976169e-01  -5.8868666355374044e-01  -6.0554362092854275e-01  -6.2735385731117344e-01  -6.5385412144654620e-01  -6.8473702728607744e-01  -7.1965408506318862e-01  -7.5821914242637256e-01  -8.0001219474284213e-01  -8.4458352373281520e-01  -8.9145812233381116e-01  -9.4014036203086682e-01  -9.9011885706928882e-01  -1.0408714782896458e+00  -1.0918704679624573e+00  -1.1425876060458560e+00  -1.1924993777892519e+00  -1.2410920925937616e+00  -1.2878669045121924e+00  -1.3323446857217374e+00  -1.3740707057366337e+00  -1.4126190710166813e+00  -1.4475968819494263e+00  -1.4786480669331010e+00  -1.5054568564198805e+00  -1.5277508632631300e+00  -1.5453037395324503e+00  -1.5579373840611022e+00  -1.5655236793325498e+00  -1.5679857408718778e+00  -1.5652986670217193e+00  -1.5574897818070697e+00  -1.5446383684975098e+00  -1.5268748963953962e+00  -1.5043797482694761e+00  -1.4773814606793017e+00  -1.4461544941371580e+00  -1.4110165545887303e+00  -1.3723254920241998e+00  -1.3304758061073338e+00  -1.2858947924955253e+00  -1.2390383669832901e+00  -1.1903866076982790e+00  -1.1404390582861210e+00  -1.0897098373079259e+00  -1.0387226009218289e+00  -9.8800540731323905e-01  -9.3808553225508851e-01  -8.8948428561799664e-01  -8.4271187861012542e-01  -7.9826239099452589e-01  -7.5660888652359015e-01  -7.1819872335318891e-01  -6.8344910423909577e-01  -6.5274290888511510e-01  -6.2642484788567088e-01  -6.0479797422485726e-01  -5.8812058423033331e-01  -5.7660353528418384e-01  -5.7040800105161393e-01  -5.6964381224933380e-01  -5.7435847878305923e-01  -6.4019733009198165e-01  -6.3489656369429948e-01  -6.3572789134351038e-01  -6.4263834103162676e-01  -6.5549770777754601e-01  -6.7411982665752512e-01  -6.9826408942211937e-01  -7.2763779051756639e-01  -7.6189900489618223e-01  -8.0065996285038177e-01  -8.4349088104426506e-01  -8.8992420617949786e-01  -9.3945922603085896e-01  -9.9156700067506709e-01  -1.0456955647442541e+00  -1.1012753495639336e+00  -1.1577247722719279e+00  -1.2144559375875461e+00  -1.2708803968994418e+00  -1.3264149088341486e+00  -1.3804871454758674e+00  -1.4325412889418943e+00  -1.4820434640932545e+00  -1.5284869547545921e+00  -1.5713971529145840e+00  -1.6103361929752900e+00  -1.6449072261735380e+00  -1.6747582937790251e+00  -1.6995857615665997e+00  -1.7191372823080999e+00  -1.7332142575913048e+00  -1.7416737751233617e+00  -1.7444300027485611e+00  -1.7414550256580670e+00  -1.7327791186565824e+00  -1.7184904508098071e+00  -1.6987342252766238e+00  -1.6737112625898343e+00  -1.6436760410232052e+00  -1.6089342129219399e+00  -1.5698396209345333e+00  -1.5267908429087858e+00  -1.4802272987605729e+00  -1.4306249568482214e+00  -1.3784916812436918e+00  -1.3243622647506870e+00  -1.2687931955418619e+00  -1.2123572078452614e+00  -1.1556376691830312e+00  -1.0992228582243933e+00  -1.0437001883523420e+00  -9.8965043255294161e-01  -9.3764200519926888e-01  -8.8822535573063222e-01  -8.4192752812750049e-01  -7.9924693844246553e-01  -7.6064842048867065e-01  -7.2655858711409593e-01  -6.9736155128506772e-01  -6.7339504748855572e-01  -6.5494698977939281e-01  -6.4225249830452402e-01  -6.3549141965869649e-01  -6.3478652103158217e-01  -6.4019045477418290e-01  -6.9986545306226067e-01  -6.9386053576008244e-01  -6.9455784532346232e-01  -7.0189986036145013e-01  -7.1574523988496497e-01  -7.3589137608024158e-01  -7.6207609080576788e-01  -7.9398021647749562e-01  -8.3123074732337976e-01  -8.7340452841796890e-01  -9.2003244110530813e-01  -9.7060403925981231e-01  -1.0245725877291725e+00  -1.0813604515784558e+00  -1.1403647822838738e+00  -1.2009634447944291e+00  -1.2625211274626189e+00  -1.3243955753234817e+00  -1.3859438861589253e+00  -1.4465288082627419e+00  -1.5055249788500809e+00  -1.5623250426643940e+00  -1.6163455915141081e+00  -1.6670328672121066e+00  -1.7138681726967044e+00  -1.7563729389450313e+00  -1.7941133986208877e+00  -1.8267048212154224e+00  -1.8538152686852007e+00  -1.8751688352276641e+00  -1.8905483398312650e+00  -1.8997974455303399e+00  -1.9028221848334330e+00  -1.8995918765398965e+00  -1.8901394250415435e+00  -1.8745609991695773e+00  -1.8530150936458376e+00  -1.8257209821607778e+00  -1.7929565769741176e+00  -1.7550557156678830e+00  -1.7124049012115965e+00  -1.6654395267759774e+00  -1.6146396217052081e+00  -1.5605251596770466e+00  -1.5036509743041455e+00  -1.4446013312141102e+00  -1.3839842089555789e+00  -1.3224253438848803e+00  -1.2605620964565147e+00  -1.1990371980565750e+00  -1.1384924386680597e+00  -1.0795623562166194e+00  -1.0228679884209770e+00  -9.6901074736593096e-01  -9.1856647581466599e-01  -8.7207974250408227e-01  -8.3005843133380530e-01  -7.9296867646165725e-01  -7.6123019189401597e-01  -7.3521204024753672e-01  -7.1522888102436943e-01  -7.0153773422139365e-01  -6.9433528829159130e-01  -6.9375596107367044e-01  -6.9985692797279442e-01  -7.5279359169886539e-01  -7.4607242515950367e-01  -7.4655908196924770e-01  -7.5419226165834963e-01  -7.6882106344046142e-01  -7.9022859567968629e-01  -8.1813383335353362e-01  -8.5219440857202877e-01  -8.9201000673885267e-01  -9.3712633615844532e-01  -9.8703962883135232e-01  -1.0412016251393628e+00  -1.0990249910386096e+00  -1.1598891129228641e+00  -1.2231462123525851e+00  -1.2881277202976589e+00  -1.3541508484246458e+00  -1.4205252933280699e+00  -1.4865600084981654e+00  -1.5515699782718761e+00  -1.6148829280727368e+00  -1.6758459059093427e+00  -1.7338316713731807e+00  -1.7882448302661136e+00  -1.8385276554641732e+00  -1.8841655376649333e+00  -1.9246920132606200e+00  -1.9596933206758587e+00  -1.9888124410686392e+00  -2.0117525842892521e+00  -2.0282800863584121e+00  -2.0382266904122015e+00  -2.0414911890281067e+00  -2.0380404120194373e+00  -2.0279095501077666e+00  -2.0112018113050949e+00  -1.9880874132842903e+00  -1.9588019214290626e+00  -1.9236439485780958e+00  -1.8829722386424266e+00  -1.8372021622249655e+00  -1.7868016580501964e+00  -1.7322866593623965e+00  -1.6742160494243938e+00  -1.6131861947940653e+00  -1.5498251091306587e+00  -1.4847863038521159e+00  -1.4187423849845686e+00  -1.3523784579944251e+00  -1.2863854042518077e+00  -1.2214530940104582e+00  -1.1582636014037118e+00  -1.0974844869450844e+00  -1.0397622123682613e+00  -9.8571575136518474e-01  -9.3593045789394003e-01  -8.9095225122716948e-01  -8.5128217383736493e-01  -8.1737137460230591e-01  -7.8961656570036931e-01  -7.6835599706852609e-01  -7.5386598762257950e-01  -7.4635804506623271e-01  -7.4597680856128668e-01  -7.5278328286528862e-01  -7.9847201610190621e-01  -7.9102247512803459e-01  -7.9121700750072899e-01  -7.9899134611625633e-01  -8.1418670319324704e-01  -8.3657420835602425e-01  -8.6585690565207507e-01  -9.0167272547930488e-01  -9.4359809330742550e-01  -9.9115214253958916e-01  -1.0438014881826641e+00  -1.1009655124161137e+00  -1.1620221084136926e+00  -1.2263138247539007e+00  -1.2931543493453073e+00  -1.3618352689277105e+00  -1.4316330378911755e+00  -1.5018160883897405e+00  -1.5716520125409825e+00  -1.6404147469399599e+00  -1.7073916897832402e+00  -1.7718906816058528e+00  -1.8332467820010105e+00  -1.8908287766954377e+00  -1.9440453519761789e+00  -1.9923508767034590e+00  -2.0352507359505574e+00  -2.0723061646503655e+00  -2.1031385344754501e+00  -2.1274330524695775e+00  -2.1449418356343424e+00  -2.1554863317151272e+00  -2.1589590627516970e+00  -2.1553246745017618e+00  -2.1446202815591699e+00  -2.1269551047943174e+00  -2.1025094045804180e+00  -2.0715327200763376e+00  -2.0343414315404504e+00  -1.9913156691895439e+00  -1.9428955984305376e+00  -1.8895771173163596e+00  -1.8319070077565942e+00  -1.7704775872897394e+00  -1.7059209130483026e+00  -1.6389025938778370e+00  -1.5701152703556482e+00  -1.5002718256653498e+00  -1.4300983928921120e+00  -1.3603272262721064e+00  -1.2916895052514095e+00  -1.2249081408743301e+00  -1.1606906540056858e+00  -1.0997221942113315e+00  -1.0426587667836664e+00  -9.9012073339785756e-01  -9.4268664925766199e-01  -9.0088749636624810e-01  -8.6520136876102771e-01  -8.3604866126438226e-01  -8.1378780861880307e-01  -7.9871161695917992e-01  -7.9104422155920928e-01  -7.9093892794343901e-01  -7.9845981360824958e-01  -8.3646081405378869e-01  -8.2827104989103573e-01  -8.2808811137957872e-01  -8.3584561313109240e-01  -8.5137863604520858e-01  -8.7444876039188213e-01  -9.0474617966860549e-01  -9.4189282352432246e-01  -9.8544614381219664e-01  -1.0349035303100294e+00  -1.0897073116647540e+00  -1.1492502912098015e+00  -1.2128817621493191e+00  -1.2799139421725192e+00  -1.3496287637940085e+00  -1.4212849535845427e