<VTKFile type="UnstructuredGrid" version="0.1" byte_order="LittleEndian">
<UnstructuredGrid>
<Piece NumberOfPoints="25" NumberOfCells="32">
<Points>
<DataArray type="Float64" NumberOfComponents="3" Format="ascii">  0.0000000000000000e+00  0.0000000000000000e+00  0.0000000000000000e+00   2.5000000000000000e-01  0.0000000000000000e+00  0.0000000000000000e+00   5.0000000000000000e-01  0.0000000000000000e+00  0.0000000000000000e+00   7.5000000000000000e-01  0.0000000000000000e+00  0.0000000000000000e+00   1.0000000000000000e+00  0.0000000000000000e+00  0.0000000000000000e+00   0.0000000000000000e+00  2.5000000000000000e-01  0.0000000000000000e+00   2.5000000000000000e-01  2.5000000000000000e-01  0.0000000000000000e+00   5.0000000000000000e-01  2.5000000000000000e-01  0.0000000000000000e+00   7.5000000000000000e-01  2.5000000000000000e-01  0.0000000000000000e+00   1.0000000000000000e+00  2.5000000000000000e-01  0.0000000000000000e+00   0.0000000000000000e+00  5.0000000000000000e-01  0.0000000000000000e+00   2.5000000000000000e-01  5.0000000000000000e-01  0.0000000000000000e+00   5.0000000000000000e-01  5.0000000000000000e-01  0.0000000000000000e+00   7.5000000000000000e-01  5.0000000000000000e-01  0.0000000000000000e+00   1.0000000000000000e+00  5.0000000000000000e-01  0.0000000000000000e+00   0.0000000000000000e+00  7.5000000000000000e-01  0.0000000000000000e+00   2.5000000000000000e-01  7.5000000000000000e-01  0.0000000000000000e+00   5.0000000000000000e-01  7.5000000000000000e-01  0.0000000000000000e+00   7.5000000000000000e-01  7.5000000000000000e-01  0.0000000000000000e+00   1.0000000000000000e+00  7.5000000000000000e-01  0.0000000000000000e+00   0.0000000000000000e+00  1.0000000000000000e+00  0.0000000000000000e+00   2.5000000000000000e-01  1.0000000000000000e+00  0.0000000000000000e+00   5.0000000000000000e-01  1.0000000000000000e+00  0.0000000000000000e+00   7.5000000000000000e-01  1.0000000000000000e+00  0.0000000000000000e+00   1.0000000000000000e+00  1.0000000000000000e+00  0.0000000000000000e+00 </DataArray>
</Points>
<PointData Scalars="scalars">
<DataArray type="Float64" Name="Solution Component 0 - ux" Format="ascii"> -2.3214787563184146e-02  -1.9569198404203299e-02  -2.5031128766266571e-02   1.2402050487760320e-02  -4.7382219917227797e-02  -1.0811473773400646e+00  -1.4538867577264794e+00  -2.0140265770160020e+00  -1.5240502961977329e+00  -1.0746321705614008e+00  -1.3923237088975037e-02   5.8482240177191858e-01   4.4856500974565361e-01   5.1256314406509011e-02   1.8964472959341463e-02   1.0855223006688579e+00   1.9755977595597920e+00   2.6481163703476902e+00   1.9023952843594207e+00   1.0800998043055681e+00   4.6352489953613234e-02  -7.9703847484026858e-03   2.6972835399026122e-02   2.2710176286059962e-02   9.7905645122393029e-03 </DataArray>
<DataArray type="Float64" Name="Solution Component 1 - uy" Format="ascii">  9.7915841765770419e-03   1.0800941768868533e+00   1.8960108026958446e-02  -1.0746307063708174e+00  -4.7417534439592415e-02   2.2717255741712038e-02   1.9019558246890480e+00   5.0866914108142432e-02  -1.5241589222664675e+00   1.2443464995504101e-02   2.6973669778920718e-02   2.6475062619777434e+00   4.4773388496838773e-01  -2.0146370374644378e+00  -2.5030256090156799e-02  -7.9290369264935646e-03   1.9754870613911402e+00   5.8442901033651062e-01  -1.4543309970619542e+00  -1.9562309324304958e-02   4.6317216122426980e-02   1.0855237578376753e+00  -1.3927725969142097e-02  -1.0811528851232677e+00  -2.3213542211305758e-02 </DataArray>
<DataArray type="Float64" Name="Solution Component 3 - p" Format="ascii"> -7.2724580779161309e-03   6.4947401048017339e-01   9.2669834699314069e-01   6.5323189565480777e-01  -1.0336475685515295e-02  -1.1691306745748427e-02   4.1230214257818681e-01   6.0416798736792832e-01   4.4583318455855936e-01  -1.7856164903792361e-02  -1.3977992410510530e-02  -2.6685217366695699e-02  -1.9152535015321773e-02   1.4489785392810525e-02  -1.5595549659068536e-02  -2.3866084782228424e-02  -4.8413692932714003e-01  -6.6858379772969756e-01  -4.5063320232205839e-01  -1.8254968748925727e-02  -2.7979435820443811e-02  -6.8811648757387389e-01  -9.7368720559851185e-01  -6.9624014761987352e-01  -3.1171234120646131e-02 </DataArray>
</PointData>
<CellData Scalars="scalars">
<DataArray type="Float64" Name="Solution Component 2 - u_eg " Format="ascii">  1.0917314393157691e-01  -1.3015803906680182e-01   2.6045841837371471e-02  -5.2530130988988233e-02  -1.8232031451224970e-02   1.1194343204579986e-01  -9.4559443170057279e-05  -1.5868521973689233e-04   5.8632901070739117e-02  -2.9916076211417206e-02  -1.7601408420016684e-02   1.1985726055388285e-02  -4.6657559381099164e-05  -8.7440106451922706e-05   1.8033016065732339e-02  -1.1220367696859132e-01  -1.0642392190787180e-01   1.3408621225230514e-02   8.7449796313094507e-05   4.6541908480039935e-05   1.7641820666555789e-02  -1.2026039393950158e-02  -2.6196439899928172e-02   5.2296854950953639e-02   1.5863201254623106e-04   9.4603896224246443e-05   1.0668396383214329e-01  -1.3209746004859619e-02  -5.8399369402793208e-02   3.0066501573701398e-02  -1.0915127525701483e-01   1.3013601880796619e-01 </DataArray>
<DataArray type="Float64" Name="Solution Component 4 - p_eg" Format="ascii">  1.4649370169496311e-02   2.0510417460045945e-02   2.2442455303734520e-02   2.6570729972107847e-02   2.2163484323069912e-02   1.9622078926503621e-02   1.9114078314906736e-02   1.6188955478713841e-02   1.5111733060451802e-02   1.7021383828227120e-02   1.8756566149720696e-02   2.0786861537035663e-02   1.9617122232158682e-02   2.0045709512642281e-02   1.7998998748554196e-02   1.9881229949216938e-02   2.2699826600037783e-02   1.8663050009720558e-02   1.8214475233270383e-02   1.8623490178470679e-02   1.8535562241004177e-02   1.8440579280691934e-02   1.6960832501206259e-02   1.5002934027767777e-02   2.2122800187821166e-02   1.9204646887834579e-02   1.4380446946908352e-02   1.7766321619114182e-02   1.9918162642779555e-02   2.0173977759852323e-02   2.2248959163625043e-02   1.9421615988527586e-02 </DataArray>
</CellData>
<Cells>
<DataArray type="Int64" Name="offsets" Format="ascii"> 3  6  9  12  15  18  21  24  27  30  33  36  39  42  45  48  51  54  57  60  63  66  69  72  75  78  81  84  87  90  93  96 </DataArray>
<DataArray type="Int64" Name="connectivity" Format="ascii">
 5  6  0  1  6  0  1  6  7  1  2  7  8  2  7  8  2  3  8  9  3  4  9  3  5  10  11  5  6  11  12  6  11  12  6  7  12  13  7  8  13  7  8  13  14  8  9  14  16  10  15  16  10  11  16  17  11  12  17  11  12  17  18  12  13  18  19  13  18  19  13  14  20  21  15  16  21  15  16  21  22  16  17  22  23  17  22  23  17  18  23  24  18  19  24  18 </DataArray>
<DataArray type="Int64" Name="types" Format="ascii"> 5  5  5  5  5  5  5  5  5  5  5  5  5  5  5  5  5  5  5  5  5  5  5  5  5  5  5  5  5  5  5  5 </DataArray>
</Cells>
</Piece>
</UnstructuredGrid>
</VTKFile>
