<VTKFile type="UnstructuredGrid" version="0.1" byte_order="LittleEndian">
<UnstructuredGrid>
<Piece NumberOfPoints="289" NumberOfCells="512">
<Points>
<DataArray type="Float64" NumberOfComponents="3" Format="ascii">  0.0000000000000000e+00  0.0000000000000000e+00  0.0000000000000000e+00   6.2500000000000000e-02  0.0000000000000000e+00  0.0000000000000000e+00   1.2500000000000000e-01  0.0000000000000000e+00  0.0000000000000000e+00   1.8750000000000000e-01  0.0000000000000000e+00  0.0000000000000000e+00   2.5000000000000000e-01  0.0000000000000000e+00  0.0000000000000000e+00   3.1250000000000000e-01  0.0000000000000000e+00  0.0000000000000000e+00   3.7500000000000000e-01  0.0000000000000000e+00  0.0000000000000000e+00   4.3750000000000000e-01  0.0000000000000000e+00  0.0000000000000000e+00   5.0000000000000000e-01  0.0000000000000000e+00  0.0000000000000000e+00   5.6250000000000000e-01  0.0000000000000000e+00  0.0000000000000000e+00   6.2500000000000000e-01  0.0000000000000000e+00  0.0000000000000000e+00   6.8750000000000000e-01  0.0000000000000000e+00  0.0000000000000000e+00   7.5000000000000000e-01  0.0000000000000000e+00  0.0000000000000000e+00   8.1250000000000000e-01  0.0000000000000000e+00  0.0000000000000000e+00   8.7500000000000000e-01  0.0000000000000000e+00  0.0000000000000000e+00   9.3750000000000000e-01  0.0000000000000000e+00  0.0000000000000000e+00   1.0000000000000000e+00  0.0000000000000000e+00  0.0000000000000000e+00   0.0000000000000000e+00  6.2500000000000000e-02  0.0000000000000000e+00   6.2500000000000000e-02  6.2500000000000000e-02  0.0000000000000000e+00   1.2500000000000000e-01  6.2500000000000000e-02  0.0000000000000000e+00   1.8750000000000000e-01  6.2500000000000000e-02  0.0000000000000000e+00   2.5000000000000000e-01  6.2500000000000000e-02  0.0000000000000000e+00   3.1250000000000000e-01  6.2500000000000000e-02  0.0000000000000000e+00   3.7500000000000000e-01  6.2500000000000000e-02  0.0000000000000000e+00   4.3750000000000000e-01  6.2500000000000000e-02  0.0000000000000000e+00   5.0000000000000000e-01  6.2500000000000000e-02  0.0000000000000000e+00   5.6250000000000000e-01  6.2500000000000000e-02  0.0000000000000000e+00   6.2500000000000000e-01  6.2500000000000000e-02  0.0000000000000000e+00   6.8750000000000000e-01  6.2500000000000000e-02  0.0000000000000000e+00   7.5000000000000000e-01  6.2500000000000000e-02  0.0000000000000000e+00   8.1250000000000000e-01  6.2500000000000000e-02  0.0000000000000000e+00   8.7500000000000000e-01  6.2500000000000000e-02  0.0000000000000000e+00   9.3750000000000000e-01  6.2500000000000000e-02  0.0000000000000000e+00   1.0000000000000000e+00  6.2500000000000000e-02  0.0000000000000000e+00   0.0000000000000000e+00  1.2500000000000000e-01  0.0000000000000000e+00   6.2500000000000000e-02  1.2500000000000000e-01  0.0000000000000000e+00   1.2500000000000000e-01  1.2500000000000000e-01  0.0000000000000000e+00   1.8750000000000000e-01  1.2500000000000000e-01  0.0000000000000000e+00   2.5000000000000000e-01  1.2500000000000000e-01  0.0000000000000000e+00   3.1250000000000000e-01  1.2500000000000000e-01  0.0000000000000000e+00   3.7500000000000000e-01  1.2500000000000000e-01  0.0000000000000000e+00   4.3750000000000000e-01  1.2500000000000000e-01  0.0000000000000000e+00   5.0000000000000000e-01  1.2500000000000000e-01  0.0000000000000000e+00   5.6250000000000000e-01  1.2500000000000000e-01  0.0000000000000000e+00   6.2500000000000000e-01  1.2500000000000000e-01  0.0000000000000000e+00   6.8750000000000000e-01  1.2500000000000000e-01  0.0000000000000000e+00   7.5000000000000000e-01  1.2500000000000000e-01  0.0000000000000000e+00   8.1250000000000000e-01  1.2500000000000000e-01  0.0000000000000000e+00   8.7500000000000000e-01  1.2500000000000000e-01  0.0000000000000000e+00   9.3750000000000000e-01  1.2500000000000000e-01  0.0000000000000000e+00   1.0000000000000000e+00  1.2500000000000000e-01  0.0000000000000000e+00   0.0000000000000000e+00  1.8750000000000000e-01  0.0000000000000000e+00   6.2500000000000000e-02  1.8750000000000000e-01  0.0000000000000000e+00   1.2500000000000000e-01  1.8750000000000000e-01  0.0000000000000000e+00   1.8750000000000000e-01  1.8750000000000000e-01  0.0000000000000000e+00   2.5000000000000000e-01  1.8750000000000000e-01  0.0000000000000000e+00   3.1250000000000000e-01  1.8750000000000000e-01  0.0000000000000000e+00   3.7500000000000000e-01  1.8750000000000000e-01  0.0000000000000000e+00   4.3750000000000000e-01  1.8750000000000000e-01  0.0000000000000000e+00   5.0000000000000000e-01  1.8750000000000000e-01  0.0000000000000000e+00   5.6250000000000000e-01  1.8750000000000000e-01  0.0000000000000000e+00   6.2500000000000000e-01  1.8750000000000000e-01  0.0000000000000000e+00   6.8750000000000000e-01  1.8750000000000000e-01  0.0000000000000000e+00   7.5000000000000000e-01  1.8750000000000000e-01  0.0000000000000000e+00   8.1250000000000000e-01  1.8750000000000000e-01  0.0000000000000000e+00   8.7500000000000000e-01  1.8750000000000000e-01  0.0000000000000000e+00   9.3750000000000000e-01  1.8750000000000000e-01  0.0000000000000000e+00   1.0000000000000000e+00  1.8750000000000000e-01  0.0000000000000000e+00   0.0000000000000000e+00  2.5000000000000000e-01  0.0000000000000000e+00   6.2500000000000000e-02  2.5000000000000000e-01  0.0000000000000000e+00   1.2500000000000000e-01  2.5000000000000000e-01  0.0000000000000000e+00   1.8750000000000000e-01  2.5000000000000000e-01  0.0000000000000000e+00   2.5000000000000000e-01  2.5000000000000000e-01  0.0000000000000000e+00   3.1250000000000000e-01  2.5000000000000000e-01  0.0000000000000000e+00   3.7500000000000000e-01  2.5000000000000000e-01  0.0000000000000000e+00   4.3750000000000000e-01  2.5000000000000000e-01  0.0000000000000000e+00   5.0000000000000000e-01  2.5000000000000000e-01  0.0000000000000000e+00   5.6250000000000000e-01  2.5000000000000000e-01  0.0000000000000000e+00   6.2500000000000000e-01  2.5000000000000000e-01  0.0000000000000000e+00   6.8750000000000000e-01  2.5000000000000000e-01  0.0000000000000000e+00   7.5000000000000000e-01  2.5000000000000000e-01  0.0000000000000000e+00   8.1250000000000000e-01  2.5000000000000000e-01  0.0000000000000000e+00   8.7500000000000000e-01  2.5000000000000000e-01  0.0000000000000000e+00   9.3750000000000000e-01  2.5000000000000000e-01  0.0000000000000000e+00   1.0000000000000000e+00  2.5000000000000000e-01  0.0000000000000000e+00   0.0000000000000000e+00  3.1250000000000000e-01  0.0000000000000000e+00   6.2500000000000000e-02  3.1250000000000000e-01  0.0000000000000000e+00   1.2500000000000000e-01  3.1250000000000000e-01  0.0000000000000000e+00   1.8750000000000000e-01  3.1250000000000000e-01  0.0000000000000000e+00   2.5000000000000000e-01  3.1250000000000000e-01  0.0000000000000000e+00   3.1250000000000000e-01  3.1250000000000000e-01  0.0000000000000000e+00   3.7500000000000000e-01  3.1250000000000000e-01  0.0000000000000000e+00   4.3750000000000000e-01  3.1250000000000000e-01  0.0000000000000000e+00   5.0000000000000000e-01  3.1250000000000000e-01  0.0000000000000000e+00   5.6250000000000000e-01  3.1250000000000000e-01  0.0000000000000000e+00   6.2500000000000000e-01  3.1250000000000000e-01  0.0000000000000000e+00   6.8750000000000000e-01  3.1250000000000000e-01  0.0000000000000000e+00   7.5000000000000000e-01  3.1250000000000000e-01  0.0000000000000000e+00   8.1250000000000000e-01  3.1250000000000000e-01  0.0000000000000000e+00   8.7500000000000000e-01  3.1250000000000000e-01  0.0000000000000000e+00   9.3750000000000000e-01  3.1250000000000000e-01  0.0000000000000000e+00   1.0000000000000000e+00  3.1250000000000000e-01  0.0000000000000000e+00   0.0000000000000000e+00  3.7500000000000000e-01  0.0000000000000000e+00   6.2500000000000000e-02  3.7500000000000000e-01  0.0000000000000000e+00   1.2500000000000000e-01  3.7500000000000000e-01  0.0000000000000000e+00   1.8750000000000000e-01  3.7500000000000000e-01  0.0000000000000000e+00   2.5000000000000000e-01  3.7500000000000000e-01  0.0000000000000000e+00   3.1250000000000000e-01  3.7500000000000000e-01  0.0000000000000000e+00   3.7500000000000000e-01  3.7500000000000000e-01  0.0000000000000000e+00   4.3750000000000000e-01  3.7500000000000000e-01  0.0000000000000000e+00   5.0000000000000000e-01  3.7500000000000000e-01  0.0000000000000000e+00   5.6250000000000000e-01  3.7500000000000000e-01  0.0000000000000000e+00   6.2500000000000000e-01  3.7500000000000000e-01  0.0000000000000000e+00   6.8750000000000000e-01  3.7500000000000000e-01  0.0000000000000000e+00   7.5000000000000000e-01  3.7500000000000000e-01  0.0000000000000000e+00   8.1250000000000000e-01  3.7500000000000000e-01  0.0000000000000000e+00   8.7500000000000000e-01  3.7500000000000000e-01  0.0000000000000000e+00   9.3750000000000000e-01  3.7500000000000000e-01  0.0000000000000000e+00   1.0000000000000000e+00  3.7500000000000000e-01  0.0000000000000000e+00   0.0000000000000000e+00  4.3750000000000000e-01  0.0000000000000000e+00   6.2500000000000000e-02  4.3750000000000000e-01  0.0000000000000000e+00   1.2500000000000000e-01  4.3750000000000000e-01  0.0000000000000000e+00   1.8750000000000000e-01  4.3750000000000000e-01  0.0000000000000000e+00   2.5000000000000000e-01  4.3750000000000000e-01  0.0000000000000000e+00   3.1250000000000000e-01  4.3750000000000000e-01  0.0000000000000000e+00   3.7500000000000000e-01  4.3750000000000000e-01  0.0000000000000000e+00   4.3750000000000000e-01  4.3750000000000000e-01  0.0000000000000000e+00   5.0000000000000000e-01  4.3750000000000000e-01  0.0000000000000000e+00   5.6250000000000000e-01  4.3750000000000000e-01  0.0000000000000000e+00   6.2500000000000000e-01  4.3750000000000000e-01  0.0000000000000000e+00   6.8750000000000000e-01  4.3750000000000000e-01  0.0000000000000000e+00   7.5000000000000000e-01  4.3750000000000000e-01  0.0000000000000000e+00   8.1250000000000000e-01  4.3750000000000000e-01  0.0000000000000000e+00   8.7500000000000000e-01  4.3750000000000000e-01  0.0000000000000000e+00   9
[...]
<PointData Scalars="scalars">
<DataArray type="Float64" Name="Solution Component 0 - ux" Format="ascii"> -2.1277815074858763e-04   1.0962104938194149e-04   6.8447441559667281e-06  -6.0357792659990141e-05  -1.6451857426358463e-04  -2.7400691633760809e-04  -3.7338443356767481e-04  -4.4582640055921424e-04  -4.7873975485086736e-04  -4.6546518242145140e-04  -4.0673090725040924e-04  -3.0914161942487047e-04  -1.9207651409195418e-04  -4.8786142666809671e-05  -1.4193474283552825e-05   4.0097200482021767e-04  -6.2565100004615152e-04  -3.4870822574396781e-01  -3.6243666887331033e-01  -4.2424349280248891e-01  -5.2220349410282552e-01  -6.3941514429912538e-01  -7.5650220738495066e-01  -8.5450645329040864e-01  -9.1772482727176197e-01  -9.3609747007830946e-01  -9.0674540010968274e-01  -8.3441266591790009e-01  -7.3073544941926705e-01  -6.1244045436820072e-01  -4.9873128800893157e-01  -4.0823587319200055e-01  -3.5588294456675612e-01  -3.5015003005903450e-01  -6.4556954046178272e-01  -6.6618642074248990e-01  -7.7497767813382024e-01  -9.5118663718179042e-01  -1.1644001243571558e+00  -1.3792848608967405e+00  -1.5609055941033469e+00  -1.6800311032844553e+00  -1.7176082816098244e+00  -1.6676859390415024e+00  -1.5383283673681356e+00  -1.3503671190128463e+00  -1.1341701671620719e+00  -9.2490570323080212e-01  -7.5699657699442036e-01  -6.5856143555847824e-01  -6.4658855290310246e-01  -8.4393810894328425e-01  -8.6307359622452395e-01  -9.9685819148179489e-01  -1.2196258569206839e+00  -1.4926423528132950e+00  -1.7703055333747468e+00  -2.0071142809788074e+00  -2.1646593702353321e+00  -2.2175406260331503e+00  -2.1572834602791340e+00  -1.9936449406923511e+00  -1.7531013173021555e+00  -1.4747405429273137e+00  -1.2041784057062825e+00  -9.8641546947503567e-01  -8.5871014863213080e-01  -8.4434263512190100e-01  -9.1386728205554491e-01  -9.2199688639194610e-01  -1.0540502067216697e+00  -1.2837923655051324e+00  -1.5704200912088033e+00  -1.8652380996268021e+00  -2.1192164733757988e+00  -2.2906043552086333e+00  -2.3514089460087257e+00  -2.2917366278921101e+00  -2.1213270990465132e+00  -1.8680431200750556e+00  -1.5735456263402270e+00  -1.2868161959298987e+00  -1.0565212335804981e+00  -9.2340053401132793e-01  -9.1355442132193976e-01  -8.4467436463839840e-01  -8.3286199248771131e-01  -9.3573059985657514e-01  -1.1308473786700004e+00  -1.3818632794657968e+00  -1.6446242552836021e+00  -1.8741738707327427e+00  -2.0318303027536242e+00  -2.0912488017709063e+00  -2.0425404416304982e+00  -1.8938186151520475e+00  -1.6699398867882154e+00  -1.4086375027866787e+00  -1.1546490967136824e+00  -9.5275515873453820e-01  -8.4083205624226254e-01  -8.4364123063276841e-01  -6.4689115501367522e-01  -6.0823688343094551e-01  -6.5798392905141379e-01  -7.8125440777995081e-01  -9.5198643632181035e-01  -1.1375274677990368e+00  -1.3040107019168163e+00  -1.4218167814749458e+00  -1.4702987944475425e+00  -1.4410569500762580e+00  -1.3392697735134276e+00  -1.1828866471944997e+00  -9.9981663289512868e-01  -8.2356133536110310e-01  -6.8798907573703794e-01  -6.2210415468643587e-01  -6.4527212341223139e-01  -3.5062537108644465e-01  -2.8154568926943918e-01  -2.6157603441184196e-01  -2.8599706410147452e-01  -3.4330653316507997e-01  -4.1758322967659028e-01  -4.9140902246675100e-01  -5.4887816121596444e-01  -5.7826313632975423e-01  -5.7394665845679049e-01  -5.3733690263341938e-01  -4.7663806161017591e-01  -4.0552645456710446e-01  -3.4095716935944520e-01  -3.0047182827408980e-01  -2.9948034877898416e-01  -3.4865111511107472e-01  -9.7564452061260556e-04   9.7960955674794695e-02   1.9410648026320543e-01   2.8095831238326624e-01   3.5339263057439113e-01   4.0789814522037399e-01   4.4256550594804261e-01   4.5699750371630177e-01   4.5211427449627184e-01   4.2986161658757094e-01   3.9285220312499952e-01   3.4398115360631815e-01   2.8605832045062857e-01   2.2149004902496203e-01   1.5202332368333896e-01   7.8532625682969343e-02   1.0559331187483308e-03   3.4883145130272170e-01   4.7266014786924682e-01   6.4000737351121706e-01   8.3379009189825426e-01   1.0327155863781039e+00   1.2140847636634433e+00   1.3567092061211996e+00   1.4437663843612880e+00   1.4651141636502387e+00   1.4186893018241191e+00   1.3107621698368046e+00   1.1549963866931490e+00   9.7044231268577164e-01   7.7875020125213812e-01   6.0099801364316974e-01   4.5457087181266992e-01   3.5060249258042880e-01   6.4554560753044898e-01   7.8531561307812425e-01   1.0078821621571361e+00   1.2878382858737449e+00   1.5906388981533619e+00   1.8775574177197141e+00   2.1111040638154770e+00   2.2604053700937383e+00   2.3056855283663595e+00   2.2411479874070479e+00   2.0758067496522554e+00   1.8321315547033892e+00   1.5427030568218023e+00   1.2453739023332082e+00   9.7765349769501386e-01   7.7114481163621373e-01   6.4676629836163602e-01   8.4399765081854816e-01   9.8780393946206535e-01   1.2407127865536465e+00   1.5725275934699530e+00   1.9403864470320304e+00   2.2951366090058691e+00   2.5884507071820186e+00   2.7799268096895950e+00   2.8430637075968472e+00   2.7691908316354370e+00   2.5687488924748036e+00   2.2697221942061399e+00   1.9134567236991020e+00   1.5484952814482889e+00   1.2233619552218038e+00   9.7939191478658560e-01   8.4445141269816082e-01   9.1397883756954945e-01   1.0484849896548039e+00   1.3014774129938298e+00   1.6422372836721628e+00   2.0257862529089183e+00   2.3997395696766572e+00   2.7120621620921148e+00   2.9188227065076600e+00   2.9907588570630312e+00   2.9176561107204972e+00   2.7098763740254235e+00   2.3968058378005219e+00   2.0224601297708742e+00   1.6389182310994399e+00   1.2985904144999540e+00   1.0465208699582520e+00   9.1355801245060952e-01   8.4482665359625786e-01   9.5710126682080077e-01   1.1789560016210443e+00   1.4834835126008692e+00   1.8300949981098551e+00   2.1708674198325433e+00   2.4577847344401422e+00   2.6499741104619763e+00   2.7198587026637786e+00   2.6573075104788613e+00   2.4711621450220282e+00   2.1879166509941275e+00   1.8477585577378564e+00   1.4985840519874021e+00   1.1889096255111355e+00   9.6080178795353544e-01   8.4354554389729175e-01   6.4707409812016858e-01   7.2646385225972887e-01   8.8971509400431859e-01   1.1173599446684979e+00   1.3789859931210491e+00   1.6381556226126714e+00   1.8580455981027717e+00   2.0070573177741653e+00   2.0636003298178012e+00   2.0193521622362574e+00   1.8805161985443837e+00   1.6668983886550393e+00   1.4089537058744670e+00   1.1432677868230277e+00   9.0718080956984004e-01   7.3339816945919378e-01   6.4512768031491974e-01   3.5082148382351536e-01   3.9070974765155264e-01   4.7602924092144128e-01   5.9693850488747402e-01   7.3731784532041034e-01   8.7750177249977812e-01   9.9743943960531134e-01   1.0797753963284236e+00   1.1124862038541914e+00   1.0906961437285860e+00   1.0174126126928240e+00   9.0307893586176213e-01   7.6402008525861409e-01   6.2003458961305480e-01   4.9150862549338831e-01   3.9654273245689498e-01   3.4824208880820329e-01   5.7478333594760214e-04  -1.7108029223885846e-04   1.8445637191474322e-04   2.1533452423780377e-04   3.4384689761687761e-04   4.3916414134410534e-04   5.1071976604944022e-04   5.3917022420975195e-04   5.1939084090367015e-04   4.5190523869108573e-04   3.4437618162027673e-04   2.1220605455879161e-04   6.7351728581243716e-05  -4.8394156756763465e-05  -2.0311666524280454e-04  -7.4849809613069363e-05  -6.9444075169217937e-04 </DataArray>
<DataArray type="Float64" Name="Solution Component 1 - uy" Format="ascii"> -6.9446531854934664e-04   3.4824212706457958e-01   6.4512762664326451e-01   8.4354543775997448e-01   9.1355785149636870e-01   8.4445120827172848e-01   6.4676606019498595e-01   3.5060223302336835e-01   1.0556657186903328e-03  -3.4865137854691258e-01  -6.4527236940860888e-01  -8.4364144663638274e-01  -9.1355459452473398e-01  -8.4434275540644133e-01  -6.4658860434876941e-01  -3.5014996355572836e-01  -6.2580634902985929e-04  -7.4770925804620714e-05   3.9654117550700407e-01   7.3339511475763208e-01   9.6079784112253641e-01   1.0465166674524304e+00   9.7938803983599931e-01   7.7114174075069242e-01   4.5456895793499641e-01   7.8532063310687614e-02  -2.9947950780638144e-01  -6.2210199517804710e-01  -8.4082881181179314e-01  -9.2339656261036296e-01  -8.5870592825438052e-01  -6.5855756735707938e-01  -3.5588025048044319e-01   4.0114015759107753e-04  -2.0302125552257275e-04   4.9150419068350182e-01   9.0717241521197423e-01   1.1888984134612393e+00   1.2985776533014102e+00   1.2233488475343994e+00   9.7764109500031238e-01   6.0098714839185408e-01   1.5201459226930994e-01  -3.0047806690151879e-01  -6.8799272251583465e-01  -9.5275636751076720e-01  -1.0565203981585967e+00  -9.8641320582188974e-01  -7.5699373319258678e-01  -4.0823360039157958e-01  -1.4148229099061120e-05  -4.8268471460499695e-05   6.2002674465528607e-01   1.1432531324432320e+00   1.4985642313441165e+00   1.6388950370800310e+00   1.5484704645151421e+00   1.2453490387867687e+00   7.7872663872747239e-01   2.2146887357632772e-01  -3.4097517556000956e-01  -8.2357570732863872e-01  -1.1546596941906251e+00  -1.2868231885555259e+00  -1.2041822633158514e+00  -9.2490718103064784e-01  -4.9873137676492579e-01  -4.8675938639261901e-05   6.7498112457722289e-05   7.6400892026225431e-01   1.4089329797884553e+00   1.8477303261031095e+00   2.0224265740571163e+00   1.9134199819767308e+00   1.5426651337509831e+00   9.7040501844332472e-01   2.8602320199666487e-01  -4.0555815013355995e-01  -9.9984399088682907e-01  -1.4086599510390883e+00  -1.5735629414551064e+00  -1.4747528370859666e+00  -1.1341778104343569e+00  -6.1244397338996359e-01  -1.9195475866060825e-04   2.1236924732693206e-04   9.0306505447898455e-01   1.6668726708597976e+00   2.1878814272937035e+00   2.3967634881764046e+00   2.2696750841034472e+00   1.8320819755022029e+00   1.1549464777228862e+00   3.4393284925968637e-01  -4.7668308506773532e-01  -1.1829270076170117e+00  -1.6699745321196326e+00  -1.8680713452819842e+00  -1.7531227168283892e+00  -1.3503815179246617e+00  -7.3074274569142539e-01  -3.0899730240983105e-04   3.4454996323931008e-04   1.0173969746303770e+00   1.8804872183885806e+00   2.4711222177741443e+00   2.7098278992575140e+00   2.5686942866181752e+00   2.0757484028501971e+00   1.3107024050555494e+00   3.9279321982073834e-01  -5.3739307843891837e-01  -1.3393213489202431e+00  -1.8938640802003337e+00  -2.1213652213582086e+00  -1.9936747521965181e+00  -1.5383490860670279e+00  -8.3442350490470918e-01  -4.0657130306493615e-04   4.5208362761836802e-04   1.0906799298392638e+00   2.0193220270899701e+00   2.6572657156845314e+00   2.9176048907371257e+00   2.7691324527819012e+00   2.2410847664930187e+00   1.4186235802422356e+00   4.2979572049799303e-01  -5.7401048306984603e-01  -1.4411166062290464e+00  -2.0425940088616636e+00  -2.2917823983079031e+00  -2.1573199327136892e+00  -1.6677117364670533e+00  -9.0675910124374037e-01  -4.6529368082512553e-04   5.1956901483133364e-04   1.1124706569633203e+00   2.0635712887756776e+00   2.7198181017706671e+00   2.9907085707630987e+00   2.8430056873081222e+00   2.3056218508757964e+00   1.4650470347861617e+00   4.5204598546644159e-01  -5.7833027398694714e-01  -1.4703624885062654e+00  -2.0913068443613203e+00  -2.3514592576667424e+00  -2.2175812517704938e+00  -1.7176373429504057e+00  -9.3611302895721704e-01  -4.7856161222555954e-04   5.3934175546710449e-04   1.0797617008370142e+00   2.0070315293363272e+00   2.6499376472237670e+00   2.9187769424198584e+00   2.7798732434279727e+00   2.2603457074865028e+00   1.4437025446890028e+00   4.5693158371847231e-01  -5.4894391481240157e-01  -1.4218800407257330e+00  -2.0318887237748577e+00  -2.2906556176675887e+00  -2.1647012035890190e+00  -1.6800612687716361e+00  -9.1774105846476361e-01  -4.4564803703163496e-04   5.1087938336064889e-04   9.9742859984851429e-01   1.8580248765547491e+00   2.4577549161485495e+00   2.7120240273113634e+00   2.5884052222993148e+00   2.1110524601378065e+00   1.3566529932748910e+00   4.4250647734425391e-01  -4.9146883934498226e-01  -1.3040691054870024e+00  -1.8742285348634962e+00  -2.1192650039981520e+00  -2.0071542574988253e+00  -1.5609346120252465e+00  -8.5452211240356268e-01  -3.7321067969948546e-04   4.3930846908447278e-04   8.7749446921071994e-01   1.6381412097252381e+00   2.1708459990935576e+00   2.3997113152675231e+00   2.2951019259253442e+00   1.8775170108629511e+00   1.2140396855483291e+00   4.0784977921151561e-01  -4.1763320557548156e-01  -1.1375771165143080e+00  -1.6446714340873243e+00  -1.8652805135151871e+00  -1.7703408124414275e+00  -1.3793106203564147e+00  -7.5651611201942581e-01  -2.7384377841000872e-04   3.4396866062140675e-04   7.3731431390087310e-01   1.3789783269825877e+00   1.8300826714736449e+00   2.0257688961496441e+00   1.9403639483781854e+00   1.5906114816723520e+00   1.0326838253940822e+00   3.5335744122765583e-01  -3.4334390156510647e-01  -9.5202443403395565e-01  -1.3819000933927927e+00  -1.5704537129682250e+00  -1.4926706402255083e+00  -1.1644208921760391e+00  -6.3942633191087905e-01  -1.6437213110160158e-04   2.1544467810037031e-04   5.9693840027439771e-01   1.1173584386789586e+00   1.4834796165089277e+00   1.6422302435818006e+00   1.5725169406565136e+00   1.2878238519735141e+00   8.3377201848432325e-01   2.8093706627932913e-01  -2.8602069851068607e-01  -7.8127934226952878e-01  -1.1308722627890160e+00  -1.2838156198496380e+00  -1.2196457279265034e+00  -9.5120132853851647e-01  -5.2221135960568721e-01  -6.0232346926151830e-05   1.8450166448654473e-04   4.7603149721926868e-01   8.8971790988413724e-01   1.1789582284417985e+00   1.3014782043264339e+00   1.2407115278523824e+00   1.0078784608252656e+00   6.4000107723589439e-01   1.9409768979347772e-01  -2.6158695863969816e-01  -6.5799638867728982e-01  -9.3574376035707474e-01  -1.0540630149116113e+00  -9.9686944201206362e-01  -7.7498610042375771e-01  -4.2424793872257249e-01   6.9406684554406832e-06  -1.7091253058724317e-04   3.9071242906105630e-01   7.2646770111321290e-01   9.5710546261598439e-01   1.0484889325667048e+00   9.8780715230552696e-01   7.8531773893774504e-01   4.7266095424617938e-01   9.7960358441084153e-02  -2.8154763716027587e-01  -6.0823998633150944e-01  -8.3286589684347390e-01  -9.2200111455635980e-01  -8.6307756450582374e-01  -6.6618949034566666e-01  -3.6243823877417991e-01   1.0969901248732245e-04   5.7462822273213470e-04   3.5082154988078745e-01   6.4707404640262189e-01   8.4482653311544753e-01   9.1397866423571972e-01   8.4399743474599809e-01   6.4554536153816022e-01   3.4883118792507101e-01  -9.7591181267628921e-04  -3.5062563047362222e-01  -6.4689139298755438e-01  -8.4467456883704339e-01  -9.1386744280481924e-01  -8.4393821482193210e-01  -6.4556959399439973e-01  -3.4870818759496502e-01  -2.1280188436795342e-04 </DataArray>