<VTKFile type="UnstructuredGrid" version="0.1" byte_order="LittleEndian">
<UnstructuredGrid>
<Piece NumberOfPoints="81" NumberOfCells="128">
<Points>
<DataArray type="Float64" NumberOfComponents="3" Format="ascii">  0.0000000000000000e+00  0.0000000000000000e+00  0.0000000000000000e+00   1.2500000000000000e-01  0.0000000000000000e+00  0.0000000000000000e+00   2.5000000000000000e-01  0.0000000000000000e+00  0.0000000000000000e+00   3.7500000000000000e-01  0.0000000000000000e+00  0.0000000000000000e+00   5.0000000000000000e-01  0.0000000000000000e+00  0.0000000000000000e+00   6.2500000000000000e-01  0.0000000000000000e+00  0.0000000000000000e+00   7.5000000000000000e-01  0.0000000000000000e+00  0.0000000000000000e+00   8.7500000000000000e-01  0.0000000000000000e+00  0.0000000000000000e+00   1.0000000000000000e+00  0.0000000000000000e+00  0.0000000000000000e+00   0.0000000000000000e+00  1.2500000000000000e-01  0.0000000000000000e+00   1.2500000000000000e-01  1.2500000000000000e-01  0.0000000000000000e+00   2.5000000000000000e-01  1.2500000000000000e-01  0.0000000000000000e+00   3.7500000000000000e-01  1.2500000000000000e-01  0.0000000000000000e+00   5.0000000000000000e-01  1.2500000000000000e-01  0.0000000000000000e+00   6.2500000000000000e-01  1.2500000000000000e-01  0.0000000000000000e+00   7.5000000000000000e-01  1.2500000000000000e-01  0.0000000000000000e+00   8.7500000000000000e-01  1.2500000000000000e-01  0.0000000000000000e+00   1.0000000000000000e+00  1.2500000000000000e-01  0.0000000000000000e+00   0.0000000000000000e+00  2.5000000000000000e-01  0.0000000000000000e+00   1.2500000000000000e-01  2.5000000000000000e-01  0.0000000000000000e+00   2.5000000000000000e-01  2.5000000000000000e-01  0.0000000000000000e+00   3.7500000000000000e-01  2.5000000000000000e-01  0.0000000000000000e+00   5.0000000000000000e-01  2.5000000000000000e-01  0.0000000000000000e+00   6.2500000000000000e-01  2.5000000000000000e-01  0.0000000000000000e+00   7.5000000000000000e-01  2.5000000000000000e-01  0.0000000000000000e+00   8.7500000000000000e-01  2.5000000000000000e-01  0.0000000000000000e+00   1.0000000000000000e+00  2.5000000000000000e-01  0.0000000000000000e+00   0.0000000000000000e+00  3.7500000000000000e-01  0.0000000000000000e+00   1.2500000000000000e-01  3.7500000000000000e-01  0.0000000000000000e+00   2.5000000000000000e-01  3.7500000000000000e-01  0.0000000000000000e+00   3.7500000000000000e-01  3.7500000000000000e-01  0.0000000000000000e+00   5.0000000000000000e-01  3.7500000000000000e-01  0.0000000000000000e+00   6.2500000000000000e-01  3.7500000000000000e-01  0.0000000000000000e+00   7.5000000000000000e-01  3.7500000000000000e-01  0.0000000000000000e+00   8.7500000000000000e-01  3.7500000000000000e-01  0.0000000000000000e+00   1.0000000000000000e+00  3.7500000000000000e-01  0.0000000000000000e+00   0.0000000000000000e+00  5.0000000000000000e-01  0.0000000000000000e+00   1.2500000000000000e-01  5.0000000000000000e-01  0.0000000000000000e+00   2.5000000000000000e-01  5.0000000000000000e-01  0.0000000000000000e+00   3.7500000000000000e-01  5.0000000000000000e-01  0.0000000000000000e+00   5.0000000000000000e-01  5.0000000000000000e-01  0.0000000000000000e+00   6.2500000000000000e-01  5.0000000000000000e-01  0.0000000000000000e+00   7.5000000000000000e-01  5.0000000000000000e-01  0.0000000000000000e+00   8.7500000000000000e-01  5.0000000000000000e-01  0.0000000000000000e+00   1.0000000000000000e+00  5.0000000000000000e-01  0.0000000000000000e+00   0.0000000000000000e+00  6.2500000000000000e-01  0.0000000000000000e+00   1.2500000000000000e-01  6.2500000000000000e-01  0.0000000000000000e+00   2.5000000000000000e-01  6.2500000000000000e-01  0.0000000000000000e+00   3.7500000000000000e-01  6.2500000000000000e-01  0.0000000000000000e+00   5.0000000000000000e-01  6.2500000000000000e-01  0.0000000000000000e+00   6.2500000000000000e-01  6.2500000000000000e-01  0.0000000000000000e+00   7.5000000000000000e-01  6.2500000000000000e-01  0.0000000000000000e+00   8.7500000000000000e-01  6.2500000000000000e-01  0.0000000000000000e+00   1.0000000000000000e+00  6.2500000000000000e-01  0.0000000000000000e+00   0.0000000000000000e+00  7.5000000000000000e-01  0.0000000000000000e+00   1.2500000000000000e-01  7.5000000000000000e-01  0.0000000000000000e+00   2.5000000000000000e-01  7.5000000000000000e-01  0.0000000000000000e+00   3.7500000000000000e-01  7.5000000000000000e-01  0.0000000000000000e+00   5.0000000000000000e-01  7.5000000000000000e-01  0.0000000000000000e+00   6.2500000000000000e-01  7.5000000000000000e-01  0.0000000000000000e+00   7.5000000000000000e-01  7.5000000000000000e-01  0.0000000000000000e+00   8.7500000000000000e-01  7.5000000000000000e-01  0.0000000000000000e+00   1.0000000000000000e+00  7.5000000000000000e-01  0.0000000000000000e+00   0.0000000000000000e+00  8.7500000000000000e-01  0.0000000000000000e+00   1.2500000000000000e-01  8.7500000000000000e-01  0.0000000000000000e+00   2.5000000000000000e-01  8.7500000000000000e-01  0.0000000000000000e+00   3.7500000000000000e-01  8.7500000000000000e-01  0.0000000000000000e+00   5.0000000000000000e-01  8.7500000000000000e-01  0.0000000000000000e+00   6.2500000000000000e-01  8.7500000000000000e-01  0.0000000000000000e+00   7.5000000000000000e-01  8.7500000000000000e-01  0.0000000000000000e+00   8.7500000000000000e-01  8.7500000000000000e-01  0.0000000000000000e+00   1.0000000000000000e+00  8.7500000000000000e-01  0.0000000000000000e+00   0.0000000000000000e+00  1.0000000000000000e+00  0.0000000000000000e+00   1.2500000000000000e-01  1.0000000000000000e+00  0.0000000000000000e+00   2.5000000000000000e-01  1.0000000000000000e+00  0.0000000000000000e+00   3.7500000000000000e-01  1.0000000000000000e+00  0.0000000000000000e+00   5.0000000000000000e-01  1.0000000000000000e+00  0.0000000000000000e+00   6.2500000000000000e-01  1.0000000000000000e+00  0.0000000000000000e+00   7.5000000000000000e-01  1.0000000000000000e+00  0.0000000000000000e+00   8.7500000000000000e-01  1.0000000000000000e+00  0.0000000000000000e+00   1.0000000000000000e+00  1.0000000000000000e+00  0.0000000000000000e+00 </DataArray>
</Points>
<PointData Scalars="scalars">
<DataArray type="Float64" Name="Solution Component 0 - ux" Format="ascii">  1.8788686648097902e-04  -2.0532757193563104e-04  -2.0921529245505905e-03  -3.5495703253747017e-03  -3.7666032507440721e-03  -2.4972860581966177e-03  -1.0571622054527429e-03   2.4229248278423666e-03  -5.1220429536078579e-03  -6.6228532592693601e-01  -8.0754560241990558e-01  -1.1763136159008609e+00  -1.5279460131657008e+00  -1.6458030145252367e+00  -1.4591633620562425e+00  -1.0842153971212598e+00  -7.5348121628581499e-01  -6.6964458093126544e-01  -9.4494587123450391e-01  -1.0700485990579018e+00  -1.5357804997847042e+00  -2.0329604315102081e+00  -2.2467210446868870e+00  -2.0436599564968958e+00  -1.5511387369261891e+00  -1.0813764067338854e+00  -9.4373483779689638e-01  -6.7249834312625012e-01  -6.3779923505648362e-01  -8.7599939200071442e-01  -1.2045868328594456e+00  -1.3956761807144624e+00  -1.3217902356118882e+00  -1.0349470774823113e+00  -7.3701330726665826e-01  -6.6256693645933806e-01  -6.1607233826616557e-03   2.4189301000729871e-01   4.3009553880736157e-01   4.9882071821464374e-01   4.5127125311519584e-01   3.3511097128939621e-01   2.0840867556075474e-01   1.0400213155265911e-01   6.8160081103727493e-03   6.6397318848626585e-01   1.0570088249377483e+00   1.6250374130175460e+00   2.0922889046391226e+00   2.2294837086265167e+00   1.9749399480535872e+00   1.4656779682333219e+00   9.5692032144518047e-01   6.7229892709926464e-01   9.4554004931309210e-01   1.3267536454334581e+00   2.0029863806085135e+00   2.6334150994669501e+00   2.8848250062502130e+00   2.6224256290072803e+00   1.9868802945660360e+00   1.3139221309077243e+00   9.4398926712186215e-01   6.7234297997869519e-01   8.8707366526624876e-01   1.3291516865605066e+00   1.7784898072438355e+00   1.9911189372187184e+00   1.8467832553237489e+00   1.4200587911201410e+00   9.3898631539473487e-01   6.6075901517509061e-01   4.9085311938443831e-03  -1.4731624317955686e-03   1.7524255285074133e-03   3.0633988428982652e-03   4.0842320529084165e-03   3.6435398168853084e-03   1.6394833662340005e-03   4.8229630996334032e-04  -3.7728104005372823e-03 </DataArray>
<DataArray type="Float64" Name="Solution Component 1 - uy" Format="ascii"> -3.7727579544155902e-03   6.6075961790168092e-01   9.4398857097383748e-01   6.7229764517984203e-01   6.8145383160953610e-03  -6.6256826459322382e-01  -9.4373550357018621e-01  -6.6964418198201847e-01  -5.1244497008637938e-03   4.8331438604533165e-04   9.3895213220197649e-01   1.3138717388068009e+00   9.5687331434020428e-01   1.0397170625513832e-01  -7.3702295927007377e-01  -1.0813686743871753e+00  -7.5346790129092156e-01   2.4255178111577411e-03   1.6406129392977360e-03   1.4199767938681656e+00   1.9867500059014265e+00   1.4655333020525527e+00   2.0827674976720523e-01  -1.0350478269723438e+00  -1.5512006616026970e+00  -1.0842409046020276e+00  -1.0566535721524067e-03   3.6447773858007734e-03   1.8466714413414573e+00   2.6222397634136865e+00   1.9747169822344692e+00   3.3488644166138104e-01  -1.3219856513305848e+00  -2.0438025459699882e+00  -1.4592392099786489e+00  -2.4959906759609474e-03   4.0854537142029261e-03   1.9910095526221958e+00   2.8846339967040104e+00   2.2292408453637393e+00   4.5101014411924278e-01  -1.3959191492108152e+00  -2.2469122155486740e+00  -1.6459125305187732e+00  -3.7653809104940417e-03   3.0646954995789994e-03   1.7784139190379942e+00   2.6332723899115589e+00   2.0920932508358443e+00   4.9859583429898119e-01  -1.2048102170052071e+00  -2.0331467009103141e+00  -1.5280580742687513e+00  -3.5483370999683881e-03   1.7529347649965117e-03   1.3291260006044232e+00   2.0029241266995044e+00   1.6249362005339580e+00   4.2996305838588822e-01  -8.7614463368513795e-01  -1.5359112588450723e+00  -1.1763958189890333e+00  -2.0910167020499106e-03  -1.4705766817405094e-03   8.8708677983999495e-01   1.3267610568374442e+00   1.0569987652408015e+00   2.4186212321339245e-01  -6.3784667073632517e-01  -1.0700993145140461e+00  -8.0758005388843768e-01  -2.0432493832361830e-04   4.9061288049587863e-03   6.7234337236616837e-01   9.4553937933321897e-01   6.6397185829614080e-01  -6.1621923612585634e-03  -6.7249961997700647e-01  -9.4494656376005481e-01  -6.6228472151236484e-01   1.8795531662650313e-04 </DataArray>
<DataArray type="Float64" Name="Solution Component 3 - p" Format="ascii"> -3.0358131583650161e-01   4.6677329683171176e-02   3.4316610934648556e-01   5.4107555847678357e-01   6.1030875623198710e-01   5.4046956329703488e-01   3.4221563327626137e-01   4.5542110584846252e-02  -3.0387686680154230e-01  -3.0523408560123150e-01   1.3261272186738421e-02   2.8430138704257396e-01   4.6845424376601741e-01   5.3504918905377652e-01   4.7291737488395130e-01   2.9109964132533400e-01   1.7625526160470917e-02  -3.0467732811472353e-01  -3.0464281199885701e-01  -6.3720252182071446e-02   1.4153861701227177e-01   2.8224124802640410e-01   3.3416277696214836e-01   2.8797596799171388e-01   1.5011619534286852e-01  -5.8834971942429121e-02  -3.0462864019964370e-01  -3.0452308056589039e-01  -1.7912772881176561e-01  -6.8434648652246355e-02   9.1445919809369225e-03   3.9436366231182934e-02   1.6301358234928981e-02  -5.7477357761510722e-02  -1.7137159565416749e-01  -3.0472077794254693e-01  -3.0452302731759229e-01  -3.1284290916242852e-01  -3.1314768704430640e-01  -3.0984747091345799e-01  -3.0545211392361010e-01  -3.0209639003371858e-01  -3.0098511968810182e-01  -3.0278065873092708e-01  -3.0510731111887734e-01  -3.0488402082924160e-01  -4.4460591202581323e-01  -5.5588134987321536e-01  -6.2720477695352006e-01  -6.4930092515804061e-01  -6.2004964484514258e-01  -5.4437420503452028e-01  -4.3374216139542343e-01  -3.0581220327129999e-01  -3.0551367973338778e-01  -5.5492001812101277e-01  -7.6101751334573253e-01  -8.9642245258546072e-01  -9.4183820446669164e-01  -8.9124416896946745e-01  -7.5244629912059868e-01  -5.4558917991628819e-01  -3.0659885222059491e-01  -3.0639065654756081e-01  -6.2852485298924510e-01  -8.9914469059345081e-01  -1.0787429154578527e+00  -1.1412331556520279e+00  -1.0773976973213657e+00  -8.9681091019817138e-01  -6.2417506053252469e-01  -3.0728768972503340e-01  -3.0702296579808608e-01  -6.5627138186398393e-01  -9.5386917744058031e-01  -1.1526642258436839e+00  -1.2224839228067856e+00  -1.1525554008502166e+00  -9.5374399050473313e-01  -6.5599177879243487e-01  -3.0734631502074666e-01 </DataArray>
</PointData>
<CellData Scalars="scalars">
<DataArray type="Float64" Name="Solution Component 2 - u_eg " Format="ascii">  6.6228696412514138e-02  -7.7163723681785132e-02   7.1380238123077033e-02  -9.4084273560510606e-02   5.4500198224521117e-02  -5.0129118003788012e-02   9.2576229937561798e-03   1.7009414582301690e-02  -3.7243646627900175e-02   7.1912973520651541e-02  -5.8834386144721654e-02   8.2581463837702693e-02  -4.3251004649220708e-02   4.6547652912196827e-02  -1.5730206767149457e-05  -1.9088337005817056e-05   9.6161245289282771e-02  -7.1479378701567467e-02   5.4502132377068989e-02  -5.6698913335756190e-02   1.7113031836371372e-02  -1.4030822102202762e-02  -2.3843217798141272e-02   3.1421151110133369e-02  -4.5717627743342162e-02   5.3862325574724298e-02  -3.6000209204738044e-02   4.0715299964555147e-02  -2.4411459596519985e-05  -2.4353220136043592e-05   4.3209103555924014e-02  -4.6589875112908033e-02   4.9843122473041720e-02  -5.6622767721430670e-02   1.1807434349978664e-02  -1.9349935972916649e-02  -2.2298317032067961e-02   2.0235639955184542e-02  -3.9820774506248262e-02   4.2001057967237083e-02  -3.0796790161869991e-02   3.3710294408868927e-02  -2.2205821911338039e-05  -2.8786082138910692e-05   3.5949045855829961e-02  -4.0772733949029701e-02   5.8780657966542131e-02  -8.2649276445999786e-02  -1.6491144852366125e-02  -1.1181823988344665e-02  -3.3492764308658662e-02   2.1748800311901337e-02  -4.3565187988392373e-02   3.8230565953743939e-02  -3.0304198632899605e-02   2.9451659338153274e-02  -6.1764534677891229e-06  -1.5213990828578562e-05   3.0764916446801495e-02  -3.3757178643528660e-02   4.5670530175622032e-02  -5.3917089849569506e-02   3.7184619989542152e-02  -7.1989235200610693e-02  -7.1249350718120052e-02   3.5392715527070955e-02  -5.5439126199516381e-02   4.4106861871727861e-02  -3.4551608327164238e-02   2.9931149629418258e-02   1.5216852592593190e-05   6.1749520316193754e-06   3.0312796800963274e-02  -2.9460255729744117e-02   3.9805803643175486e-02  -4.2028976660795199e-02   2.3806640930040274e-02  -3.1463294878670459e-02  -9.3141481979573497e-03  -1.7080286719225620e-02  -8.1993001419656431e-02   5.7372783013543913e-02  -4.1571035929392139e-02   3.5123973599328430e-02   2.8795395155544145e-05   2.2199377714228722e-05   3.4598504601554531e-02  -2.9899282652305195e-02   4.3593109999568273e-02  -3.8215599599018629e-02   2.2302431508159599e-02  -2.0239752645080874e-02  -1.7133749215632973e-02   1.4008725138636189e-02  -5.4545994996589471e-02   5.0075676567792424e-02  -4.4885398664632981e-02   4.2559152804239143e-02   2.4368191951567855e-05   2.4397663339280047e-05   4.1628490988788902e-02  -3.5072828213906761e-02   5.5493898426630599e-02  -4.4059778535342452e-02   3.3534912298387815e-02  -2.1712226033532001e-02  -1.1785350575788816e-02   1.9370637585625655e-02  -5.4503939873680837e-02   5.6700748110888495e-02  -7.1407595128127943e-02   9.4057484525090315e-02   1.9085829506214715e-05   1.5718046118992503e-05   4.4927650081173526e-02  -4.2517266968611238e-02   8.2060822155809718e-02  -5.7319058459667442e-02   7.1325603112859112e-02  -3.5333685004265661e-02   1.6562009055347760e-02   1.1238358836219346e-02  -4.9789715157237784e-02   5.6668571866076503e-02  -9.6134437691242067e-02   7.1506685444246362e-02  -6.6230228969227617e-02   7.7165252524612857e-02 </DataArray>
<DataArray type="Float64" Name="Solution Component 4 - p_eg" Format="ascii">  3.0466913644692828e-01   3.0501769685010394e-01   3.0545326212602858e-01   3.0589020623761448e-01   3.0600599277680535e-01   3.0631109905792986e-01   3.0622250423233283e-01   3.0633856585495101e-01   3.0614770411615100e-01   3.0607109898045964e-01   3.0587508575916739e-01   3.0566366584595561e-01   3.0549065332303121e-01   3.0519713192533249e-01   3.0501056339768157e-01   3.0458550293390857e-01   3.0481917809108516e-01   3.0504321693067449e-01   3.0532803950424658e-01   3.0561138558673856e-01   3.0575210159938671e-01   3.0600374808969072e-01   3.0597924307887003e-01   3.0611057007686449e-01   3.0597981306211813e-01   3.0597354758405770e-01   3.0579656724877169e-01   3.0568794405942346e-01   3.0551336041149152e-01   3.0535526609137797e-01   3.0520765948170803e-01   3.0503882727337694e-01   3.0504354967803682e-01   3.0516467574503481e-01   3.0532802224425476e-01   3.0548530969751325e-01   3.0558167746756343e-01   3.0574211043632077e-01   3.0573621803100898e-01   3.0584018884931963e-01   3.0574529572697462e-01   3.0577268031962851e-01   3.0561455685712191e-01   3.0558543934524740e-01   3.0540337286056368e-01   3.0535752812704231e-01   3.0518519611096989e-01   3.0514519531932488e-01   3.0547378874244369e-01   3.0536817824343659e-01   3.0542973855895339e-01   3.0545138091141688e-01   3.0548178675480725e-01   3.0554496549950277e-01   3.0552310446311226e-01   3.0558892125662518e-01   3.0550231026009955e-01   3.0555157887183637e-01   3.0540298901678931e-01   3.0543327821342348e-01   3.0524973761837693e-01   3.0527232940087723e-01   3.0509102101315377e-01   3.0510874018314182e-01   3.0591314129363295e-01   3.0564112150902345e-01   3.0556551055686465e-01   3.0546200245442257e-01   3.0540823605350986e-01   3.0539935508522470e-01   3.0533992308265262e-01   3.0538894673599976e-01   3.0529836966953178e-01   3.0537406060400374e-01   3.0524753007006339e-01   3.0531616655622029e-01   3.0516975884748881e-01   3.0520493543527349e-01   3.0507055334094085e-01   3.0505280846651461e-01   3.0618412530223699e-01   3.0585076167717773e-01   3.0562830783554845e-01   3.0546365984168949e-01   3.0530783190245159e-01   3.0527801480664768e-01   3.0517233058254906e-01   3.0523794168767715e-01   3.0515298290445053e-01   3.0526186716718323e-01   3.0519165881030863e-01   3.0528378459481620e-01   3.0523595706183648e-01   3.0524905960193466e-01   3.0524114029472310e-01   3.0514725544183152e-01   3.0625528647184452e-01   3.0592201735290020e-01   3.0554117733229058e-01   3.0538192845551276e-01   3.0511777394597372e-01   3.0512607864674757e-01   3.0498342102028075e-01   3.0510173895229475e-01   3.0505627091090948e-01   3.0520017527616944e-01   3.0522972785226760e-01   3.0533621457598187e-01   3.0543519550805170e-01   3.0544459383190703e-01   3.0564027237171271e-01   3.0547876751754721e-01   3.0631392811189029e-01   3.0588937994535964e-01   3.0530469449652392e-01   3.0517565137139480e-01   3.0480438670587351e-01   3.0488748479237249e-01   3.0470936543979987e-01   3.0492443592581664e-01   3.0494467404461806e-01   3.0515049402842431e-01   3.0531686847502298e-01   3.0540989534140545e-01   3.0563611994022277e-01   3.0568647141192096e-01   3.0610552730251839e-01   3.0605666062531023e-01 </DataArray>
</CellData>
<Cells>
<DataArray type="Int64" Name="offsets" Format="ascii"> 3  6  9  12  15  18  21  24  27  30  33  36  39  42  45  48  51  54  57  60  63  66  69  72  75  78  81  84  87  90  93  96  99  102  105  108  111  114  117  120  123  126  129  132  135  138  141  144  147  150  153  156  159  162  165  168  171  174  177  180  183  186  189  192  195  198  201  204  207  210  213  216  219  222  225  228  231  234  237  240  243  246  249  252  255  258  261  264  267  270  273  276  279  282  285  288  291  294  297  300  303  306  309  312  315  318  321  324  327  330  333  336  339  342  345  348  351  354  357  360  363  366  369  372  375  378  381  384 </DataArray>
<DataArray type="Int64" Name="connectivity" Format="ascii">
 9  10  0  1  10  0  1  10  11  1  2  11  12  2  11  12  2  3  12  13  3  4  13  3  4  13  14  4  5  14  15  5  14  15  5  6  15  16  6  7  16  6  7  16  17  7  8  17  9  18  19  9  10  19  20  10  19  20  10  11  20  21  11  12  21  11  12  21  22  12  13  22  23  13  22  23  13  14  23  24  14  15  24  14  15  24  25  15  16  25  26  16  25  26  16  17  28  18  27  28  18  19  28  29  19  20  29  19  20  29  30  20  21  30  31  21  30  31  21  22  31  32  22  23  32  22  23  32  33  23  24  33  34  24  33  34  24  25  34  35  25  26  35  25  36  37  27  28  37  27  28  37  38  28  29  38  39  29  38  39  29  30  39  40  30  31  40  30  31  40  41  31  32  41  42  32  41  42  32  33  42  43  33  34  43  33  34  43  44  34  35  44  36  45  46  36  37  46  47  37  46  47  37  38  47  48  38  39  48  38  39  48  49  39  40  49  50  40  49  50  40  41  50  51  41  42  51  41  42  51  52  42  43  52  53  43  52  53  43  44  55  45  54  55  45  46  55  56  46  47  56  46  47  56  57  47  48  57  58  48  57  58  48  49  58  59  49  50  59  49  50  59  60  50  51  60  61  51  60  61  51  52  61  62  52  53  62  52  63  64  54  55  64  54  55  64  65  55  56  65  66  56  65  66  56  57  66  67  57  58  67  57  58  67  68  58  59  68  69  59  68  69  59  60  69  70  60  61  70  60  61  70  71  61  62  71  63  72  73  63  64  73  74  64  73  74  64  65  74  75  65  66  75  65  66  75  76  66  67  76  77  67  76  77  67  68  77  78  68  69  78  68  69  78  79  69  70  79  80  70  79  80  70  71 </DataArray>
<DataArray type="Int64" Name="types" Format="ascii"> 5  5  5  5  5  5  5  5  5  5  5  5  5  5  5  5  5  5  5  5  5  5  5  5  5  5  5  5  5  5  5  5  5  5  5  5  5  5  5  5  5  5  5  5  5  5  5  5  5  5  5  5  5  5  5  5  5  5  5  5  5  5  5  5  5  5  5  5  5  5  5  5  5  5  5  5  5  5  5  5  5  5  5  5  5  5  5  5  5  5  5  5  5  5  5  5  5  5  5  5  5  5  5  5  5  5  5  5  5  5  5  5  5  5  5  5  5  5  5  5  5  5  5  5  5  5  5  5 </DataArray>
</Cells>
</Piece>
</UnstructuredGrid>
</VTKFile>
