<VTKFile type="UnstructuredGrid" version="0.1" byte_order="LittleEndian">
<UnstructuredGrid>
<Piece NumberOfPoints="1089" NumberOfCells="2048">
<Points>
<DataArray type="Float64" NumberOfComponents="3" Format="ascii">  0.0000000000000000e+00  0.0000000000000000e+00  0.0000000000000000e+00   3.1250000000000000e-02  0.0000000000000000e+00  0.0000000000000000e+00   6.2500000000000000e-02  0.0000000000000000e+00  0.0000000000000000e+00   9.3750000000000000e-02  0.0000000000000000e+00  0.0000000000000000e+00   1.2500000000000000e-01  0.0000000000000000e+00  0.0000000000000000e+00   1.5625000000000000e-01  0.0000000000000000e+00  0.0000000000000000e+00   1.8750000000000000e-01  0.0000000000000000e+00  0.0000000000000000e+00   2.1875000000000000e-01  0.0000000000000000e+00  0.0000000000000000e+00   2.5000000000000000e-01  0.0000000000000000e+00  0.0000000000000000e+00   2.8125000000000000e-01  0.0000000000000000e+00  0.0000000000000000e+00   3.1250000000000000e-01  0.0000000000000000e+00  0.0000000000000000e+00   3.4375000000000000e-01  0.0000000000000000e+00  0.0000000000000000e+00   3.7500000000000000e-01  0.0000000000000000e+00  0.0000000000000000e+00   4.0625000000000000e-01  0.0000000000000000e+00  0.0000000000000000e+00   4.3750000000000000e-01  0.0000000000000000e+00  0.0000000000000000e+00   4.6875000000000000e-01  0.0000000000000000e+00  0.0000000000000000e+00   5.0000000000000000e-01  0.0000000000000000e+00  0.0000000000000000e+00   5.3125000000000000e-01  0.0000000000000000e+00  0.0000000000000000e+00   5.6250000000000000e-01  0.0000000000000000e+00  0.0000000000000000e+00   5.9375000000000000e-01  0.0000000000000000e+00  0.0000000000000000e+00   6.2500000000000000e-01  0.0000000000000000e+00  0.0000000000000000e+00   6.5625000000000000e-01  0.0000000000000000e+00  0.0000000000000000e+00   6.8750000000000000e-01  0.0000000000000000e+00  0.0000000000000000e+00   7.1875000000000000e-01  0.0000000000000000e+00  0.0000000000000000e+00   7.5000000000000000e-01  0.0000000000000000e+00  0.0000000000000000e+00   7.8125000000000000e-01  0.0000000000000000e+00  0.0000000000000000e+00   8.1250000000000000e-01  0.0000000000000000e+00  0.0000000000000000e+00   8.4375000000000000e-01  0.0000000000000000e+00  0.0000000000000000e+00   8.7500000000000000e-01  0.0000000000000000e+00  0.0000000000000000e+00   9.0625000000000000e-01  0.0000000000000000e+00  0.0000000000000000e+00   9.3750000000000000e-01  0.0000000000000000e+00  0.0000000000000000e+00   9.6875000000000000e-01  0.0000000000000000e+00  0.0000000000000000e+00   1.0000000000000000e+00  0.0000000000000000e+00  0.0000000000000000e+00   0.0000000000000000e+00  3.1250000000000000e-02  0.0000000000000000e+00   3.1250000000000000e-02  3.1250000000000000e-02  0.0000000000000000e+00   6.2500000000000000e-02  3.1250000000000000e-02  0.0000000000000000e+00   9.3750000000000000e-02  3.1250000000000000e-02  0.0000000000000000e+00   1.2500000000000000e-01  3.1250000000000000e-02  0.0000000000000000e+00   1.5625000000000000e-01  3.1250000000000000e-02  0.0000000000000000e+00   1.8750000000000000e-01  3.1250000000000000e-02  0.0000000000000000e+00   2.1875000000000000e-01  3.1250000000000000e-02  0.0000000000000000e+00   2.5000000000000000e-01  3.1250000000000000e-02  0.0000000000000000e+00   2.8125000000000000e-01  3.1250000000000000e-02  0.0000000000000000e+00   3.1250000000000000e-01  3.1250000000000000e-02  0.0000000000000000e+00   3.4375000000000000e-01  3.1250000000000000e-02  0.0000000000000000e+00   3.7500000000000000e-01  3.1250000000000000e-02  0.0000000000000000e+00   4.0625000000000000e-01  3.1250000000000000e-02  0.0000000000000000e+00   4.3750000000000000e-01  3.1250000000000000e-02  0.0000000000000000e+00   4.6875000000000000e-01  3.1250000000000000e-02  0.0000000000000000e+00   5.0000000000000000e-01  3.1250000000000000e-02  0.0000000000000000e+00   5.3125000000000000e-01  3.1250000000000000e-02  0.0000000000000000e+00   5.6250000000000000e-01  3.1250000000000000e-02  0.0000000000000000e+00   5.9375000000000000e-01  3.1250000000000000e-02  0.0000000000000000e+00   6.2500000000000000e-01  3.1250000000000000e-02  0.0000000000000000e+00   6.5625000000000000e-01  3.1250000000000000e-02  0.0000000000000000e+00   6.8750000000000000e-01  3.1250000000000000e-02  0.0000000000000000e+00   7.1875000000000000e-01  3.1250000000000000e-02  0.0000000000000000e+00   7.5000000000000000e-01  3.1250000000000000e-02  0.0000000000000000e+00   7.8125000000000000e-01  3.1250000000000000e-02  0.0000000000000000e+00   8.1250000000000000e-01  3.1250000000000000e-02  0.0000000000000000e+00   8.4375000000000000e-01  3.1250000000000000e-02  0.0000000000000000e+00   8.7500000000000000e-01  3.1250000000000000e-02  0.0000000000000000e+00   9.0625000000000000e-01  3.1250000000000000e-02  0.0000000000000000e+00   9.3750000000000000e-01  3.1250000000000000e-02  0.0000000000000000e+00   9.6875000000000000e-01  3.1250000000000000e-02  0.0000000000000000e+00   1.0000000000000000e+00  3.1250000000000000e-02  0.0000000000000000e+00   0.0000000000000000e+00  6.2500000000000000e-02  0.0000000000000000e+00   3.1250000000000000e-02  6.2500000000000000e-02  0.0000000000000000e+00   6.2500000000000000e-02  6.2500000000000000e-02  0.0000000000000000e+00   9.3750000000000000e-02  6.2500000000000000e-02  0.0000000000000000e+00   1.2500000000000000e-01  6.2500000000000000e-02  0.0000000000000000e+00   1.5625000000000000e-01  6.2500000000000000e-02  0.0000000000000000e+00   1.8750000000000000e-01  6.2500000000000000e-02  0.0000000000000000e+00   2.1875000000000000e-01  6.2500000000000000e-02  0.0000000000000000e+00   2.5000000000000000e-01  6.2500000000000000e-02  0.0000000000000000e+00   2.8125000000000000e-01  6.2500000000000000e-02  0.0000000000000000e+00   3.1250000000000000e-01  6.2500000000000000e-02  0.0000000000000000e+00   3.4375000000000000e-01  6.2500000000000000e-02  0.0000000000000000e+00   3.7500000000000000e-01  6.2500000000000000e-02  0.0000000000000000e+00   4.0625000000000000e-01  6.2500000000000000e-02  0.0000000000000000e+00   4.3750000000000000e-01  6.2500000000000000e-02  0.0000000000000000e+00   4.6875000000000000e-01  6.2500000000000000e-02  0.0000000000000000e+00   5.0000000000000000e-01  6.2500000000000000e-02  0.0000000000000000e+00   5.3125000000000000e-01  6.2500000000000000e-02  0.0000000000000000e+00   5.6250000000000000e-01  6.2500000000000000e-02  0.0000000000000000e+00   5.9375000000000000e-01  6.2500000000000000e-02  0.0000000000000000e+00   6.2500000000000000e-01  6.2500000000000000e-02  0.0000000000000000e+00   6.5625000000000000e-01  6.2500000000000000e-02  0.0000000000000000e+00   6.8750000000000000e-01  6.2500000000000000e-02  0.0000000000000000e+00   7.1875000000000000e-01  6.2500000000000000e-02  0.0000000000000000e+00   7.5000000000000000e-01  6.2500000000000000e-02  0.0000000000000000e+00   7.8125000000000000e-01  6.2500000000000000e-02  0.0000000000000000e+00   8.1250000000000000e-01  6.2500000000000000e-02  0.0000000000000000e+00   8.4375000000000000e-01  6.2500000000000000e-02  0.0000000000000000e+00   8.7500000000000000e-01  6.2500000000000000e-02  0.0000000000000000e+00   9.0625000000000000e-01  6.2500000000000000e-02  0.0000000000000000e+00   9.3750000000000000e-01  6.2500000000000000e-02  0.0000000000000000e+00   9.6875000000000000e-01  6.2500000000000000e-02  0.0000000000000000e+00   1.0000000000000000e+00  6.2500000000000000e-02  0.0000000000000000e+00   0.0000000000000000e+00  9.3750000000000000e-02  0.0000000000000000e+00   3.1250000000000000e-02  9.3750000000000000e-02  0.0000000000000000e+00   6.2500000000000000e-02  9.3750000000000000e-02  0.0000000000000000e+00   9.3750000000000000e-02  9.3750000000000000e-02  0.0000000000000000e+00   1.2500000000000000e-01  9.3750000000000000e-02  0.0000000000000000e+00   1.5625000000000000e-01  9.3750000000000000e-02  0.0000000000000000e+00   1.8750000000000000e-01  9.3750000000000000e-02  0.0000000000000000e+00   2.1875000000000000e-01  9.3750000000000000e-02  0.0000000000000000e+00   2.5000000000000000e-01  9.3750000000000000e-02  0.0000000000000000e+00   2.8125000000000000e-01  9.3750000000000000e-02  0.0000000000000000e+00   3.1250000000000000e-01  9.3750000000000000e-02  0.0000000000000000e+00   3.4375000000000000e-01  9.3750000000000000e-02  0.0000000000000000e+00   3.7500000000000000e-01  9.3750000000000000e-02  0.0000000000000000e+00   4.0625000000000000e-01  9.3750000000000000e-02  0.0000000000000000e+00   4.3750000000000000e-01  9.3750000000000000e-02  0.0000000000000000e+00   4.6875000000000000e-01  9.3750000000000000e-02  0.0000000000000000e+00   5.0000000000000000e-01  9.3750000000000000e-02  0.0000000000000000e+00   5.3125000000000000e-01  9.3750000000000000e-02  0.0000000000000000e+00   5.6250000000000000e-01  9.3750000000000000e-02  0.0000000000000000e+00   5.9375000000000000e-01  9.3750000000000000e-02  0.0000000000000000e+00   6.2500000000000000e-01  9.3750000000000000e-02  0.0000000000000000e+00   6.5625000000000000e-01  9.3750000000000000e-02  0.0000000000000000e+00   6.8750000000000000e-01  9.3750000000000000e-02  0.0000000000000000e+00   7.1875000000000000e-01  9.3750000000000000e-02  0.0000000000000000e+00   7.5000000000000000e-01  9.3750000000000000e-02  0.0000000000000000e+00   7.8125000000000000e-01  9.3750000000000000e-02  0.0000000000000000e+00   8.1250000000000000e-01  9.3750000000000000e-02  0.0000000000000000e+00   8.4375000000000000e-01  9.3750000000000000e-02  0.0000000000000000e+00   8.7500000000000000e-01  9.3750000000000000e-02  0.0000000000000000e+00   9.0625000000000000e-01  9.3750000000000000e-02  0.0000000000000000e+00   9.3750000000000000e-01  9.3750000000000000e-02  0.0000000000000000e+00   9.6875000000000000e-01  9.3750000000000000e-02  0.0000000000000000e+00   1.0000000000000000e+00  9.3750000000000000e-02  0.0000000000000000e+00   0.0000000000000000e+00  1.2500000000000000e-01  0.0000000000000000e+00   3.1250000000000000e-02  1.2500000000000000e-01  0.0000000000000000e+00  
[...]
<PointData Scalars="scalars">
<DataArray type="Float64" Name="Solution Component 0 - ux" Format="ascii"> -9.4864851841748159e-05   1.8303990926624671e-05  -3.2238752874093414e-06   4.9057491006385224e-06   4.0317828999265685e-06   3.2190769568603831e-06   4.9408658295462179e-07  -3.5337414630733271e-06  -8.7703129604463263e-06  -1.4949142690208477e-05  -2.1791588083548254e-05  -2.8984824947256464e-05  -3.6200755408535467e-05  -4.3107625027027190e-05  -4.9383542370151196e-05  -5.4729401931352293e-05  -5.8881075879366620e-05  -6.1620250511788244e-05  -6.2783550442457468e-05  -6.2269604173995348e-05  -6.0043715494150724e-05  -5.6140035495970347e-05  -5.0661192326415097e-05  -4.3775086823902723e-05  -3.5710951747233943e-05  -2.6743896159487687e-05  -1.7227914115567976e-05  -7.3684934465144980e-06   1.7180309641180029e-06   1.3185173650804112e-05   1.0224513719285936e-05   6.6925200632827288e-05  -8.0404283299622989e-05  -1.7685118165188893e-01  -1.7621361324337195e-01  -1.8228341464774350e-01  -1.9469388115402356e-01  -2.1282326376724747e-01  -2.3583433607405588e-01  -2.6271720482840927e-01  -2.9232453800305108e-01  -3.2341533033155578e-01  -3.5470193116980175e-01  -3.8489942035120889e-01  -4.1277508507251948e-01  -4.3719604871599899e-01  -4.5717312928443821e-01  -4.7189918740252040e-01  -4.8078044834591499e-01  -4.8345956458119138e-01  -4.7982951174477334e-01  -4.7003776918373608e-01  -4.5448061267564721e-01  -4.3378772982984876e-01  -4.0879774057688195e-01  -3.8052555200680405e-01  -3.5012278592614049e-01  -3.1883277310728564e-01  -2.8794179831809130e-01  -2.5872839328164005e-01  -2.3241248978946066e-01  -2.1010618357399763e-01  -1.9276748488290604e-01  -1.8115877666206168e-01  -1.7580601707698695e-01  -1.7698039063211340e-01  -3.4702982969373458e-01  -3.4558376603862762e-01  -3.5725001776029186e-01  -3.8132878979213175e-01  -4.1661120190288131e-01  -4.6147732116472456e-01  -5.1396061512842239e-01  -5.7182136339442491e-01  -6.3263265905872523e-01  -6.9387352440922534e-01  -7.5302612415440762e-01  -8.0767308836460205e-01  -8.5559112555808103e-01  -8.9483722114738773e-01  -9.2382403174659133e-01  -9.4138151620207500e-01  -9.4680238932822036e-01  -9.3986961756175358e-01  -9.2086487367617398e-01  -8.9055760603982315e-01  -8.5017512593932076e-01  -8.0135484557981163e-01  -7.4608048264680171e-01  -6.8660465524360714e-01  -6.2536079907083586e-01  -5.6486772477744718e-01  -5.0763037721069515e-01  -4.5604044370866320e-01  -4.1228037324499334e-01  -3.7823408024454097e-01  -3.5540709476638133e-01  -3.4485767656246735e-01  -3.4714743437403389e-01  -5.0384340432004504e-01  -5.0136775844489345e-01  -5.1786612161977341e-01  -5.5234801532466293e-01  -6.0308571282414325e-01  -6.6775274960619735e-01  -7.4351329002765876e-01  -8.2713054582063494e-01  -9.1509185798764681e-01  -1.0037445843543844e+00  -1.0894376377479995e+00  -1.1686630999884493e+00  -1.2381923813772615e+00  -1.2952015995425201e+00  -1.3373812804037875e+00  -1.3630261007575941e+00  -1.3711011724783191e+00  -1.3612822803889491e+00  -1.3339684965514831e+00  -1.2902666616881444e+00  -1.2319483087928220e+00  -1.1613806643633224e+00  -1.0814343558061701e+00  -9.9537134106497727e-01  -9.0671732333039845e-01  -8.1912348833562776e-01  -7.3622278054456503e-01  -6.6148609818458537e-01  -5.9808372371592600e-01  -5.4875700031802799e-01  -5.1570467701481992e-01  -5.0048750212597570e-01  -5.0393929660221881e-01  -6.4129972506951827e-01  -6.3745923529856574e-01  -6.5772008172181440e-01  -7.0084424991328675e-01  -7.6466074597757394e-01  -8.4623525560872181e-01  -9.4198044617861021e-01  -1.0477944009394653e+00  -1.1592199266228393e+00  -1.2716178441849475e+00  -1.3803474364148476e+00  -1.4809469671490709e+00  -1.5693072399964747e+00  -1.6418314400435667e+00  -1.6955750425509060e+00  -1.7283603499323421e+00  -1.7388612038337032e+00  -1.7266545761759862e+00  -1.6922370243358729e+00  -1.6370053519763585e+00  -1.5632021976350783e+00  -1.4738286226585875e+00  -1.3725270369557225e+00  -1.2634389364782781e+00  -1.1510428850927592e+00  -1.0399789188924329e+00  -9.3486605244394749e-01  -8.4011980373614470e-01  -7.5977661642023697e-01  -6.9733173511804269e-01  -6.5559647365625484e-01  -6.3658033190557295e-01  -6.4137049090814136e-01  -7.5411302615647591e-01  -7.4851846278918122e-01  -7.7122115301602268e-01  -8.2079508247331079e-01  -8.9471950994323035e-01  -9.8957242617950814e-01  -1.1011601370687893e+00  -1.2246798610172758e+00  -1.3549069476187836e+00  -1.4863987284210787e+00  -1.6137068514990607e+00  -1.7315897456873335e+00  -1.8352169305271424e+00  -1.9203572312617401e+00  -1.9835435944990665e+00  -2.0222081110849763e+00  -2.0347820091411135e+00  -2.0207567358187366e+00  -1.9807037493991531e+00  -1.9162522376399405e+00  -1.8300256002578976e+00  -1.7255391213948179e+00  -1.6070627510011455e+00  -1.4794542537882025e+00  -1.3479691200299866e+00  -1.2180545193290526e+00  -1.0951351828602847e+00  -9.8439939897108086e-01  -8.9059328713238040e-01  -8.1783117688894091e-01  -7.6942926740079531e-01  -7.4776948626999751e-01  -7.5414976025640623e-01  -8.3794739219162462e-01  -8.3017058539707211e-01  -8.5380068538456022e-01  -9.0728818993197136e-01  -9.8786911214692263e-01  -1.0917732456265343e+00  -1.2143688103228751e+00  -1.3503431905803867e+00  -1.4939108233724734e+00  -1.6390396564278817e+00  -1.7796871186544534e+00  -1.9100363115698720e+00  -2.0247232056636193e+00  -2.1190460135493043e+00  -2.1891486203691315e+00  -2.2321709652468931e+00  -2.2463605493166106e+00  -2.2311407489868205e+00  -2.1871332822405174e+00  -2.1161339449829684e+00  -2.0210425365421965e+00  -1.9057496595187260e+00  -1.7749847404782089e+00  -1.6341311116333930e+00  -1.4890152614556647e+00  -1.3456783561706387e+00  -1.2101388174045160e+00  -1.0881550862529106e+00  -9.8499770028933553e-01  -9.0523946078678053e-01  -8.5257178194508643e-01  -8.2965522772175249e-01  -8.3794586232711155e-01  -8.8958131467280943e-01  -8.7917794469606825e-01  -9.0208890198108727e-01  -9.5671036317011138e-01  -1.0401505810692924e+00  -1.1484443476532071e+00  -1.2767072769810706e+00  -1.4193278265129501e+00  -1.5701879064057702e+00  -1.7229031922973683e+00  -1.8710735979082982e+00  -2.0085340650691892e+00  -2.1295958874021790e+00  -2.2292691910683557e+00  -2.3034579486941489e+00  -2.3491199762782169e+00  -2.3643857212599890e+00  -2.3486312448617017e+00  -2.3025025712149088e+00  -2.2278904529923000e+00  -2.1278565168111503e+00  -2.0065136272639448e+00  -1.8688650750967926e+00  -1.7206087841658668e+00  -1.5679140831433842e+00  -1.4171796509330223e+00  -1.2747819773196487e+00  -1.1468240573180424e+00  -1.0388940469761416e+00  -9.5584325185726249e-01  -9.0159211016464436e-01  -8.7897287445039840e-01  -8.8953821055669513e-01  -9.0703024930220499e-01  -8.9356299671492467e-01  -9.1404472322793517e-01  -9.6688835617681879e-01  -1.0491947865483169e+00  -1.1569648603796927e+00  -1.2852572568764247e+00  -1.4283843953737612e+00  -1.5801372978999297e+00  -1.7340304989953568e+00  -1.8835573533042544e+00  -2.0224457437486687e+00  -2.1449042263482232e+00  -2.2458490533900446e+00  -2.3211032779808005e+00  -2.3675602341888373e+00  -2.3833050707680425e+00  -2.3676896397620784e+00  -2.3213578437983746e+00  -2.2462204594652126e+00  -2.1453804048044143e+00  -2.0230113329413699e+00  -1.8841942369823177e+00  -1.7347183750949338e+00  -1.5808542080423087e+00  -1.4291071298659239e+00  -1.2859615268038433e+00  -1.1576250927423362e+00  -1.0497833464419075e+00  -9.6737394283810063e-01  -9.1438965422111174e-01  -8.9371904470709196e-01  -9.0694448145511586e-01  -8.8962355049552255e-01  -8.7268567618104009e-01  -8.8903623903440498e-01  -9.3717554095559608e-01  -1.0143179632400212e+00  -1.1165931397473445e+00  -1.2392011669798686e+00  -1.3766047789325044e+00  -1.5227497856238490e+00  -1.6713051380266595e+00  -1.8159132236777737e+00  -1.9504406279264432e+00  -2.0692196084146750e+00  -2.1672709141768509e+00  -2.2404993191003792e+00  -2.2858543059682521e+00  -2.3014496902792314e+00  -2.2866375626400588e+00  -2.2420336950926618e+00  -2.1694934321828718e+00  -2.0720390012659187e+00  -1.9537410543526352e+00  -1.8195590244321782e+00  -1.6751464758553494e+00  -1.5266289882089259e+00  -1.3803631863949244e+00  -1.2426862765294566e+00  -1.1196658381978342e+00  -1.0168596482100054e+00  -9.3909497200611958e-01  -8.9027605612670091e-01  -8.7322879990161606e-01  -8.8949591458682342e-01  -8.3802999231350184e-01  -8.1726871510713250e-01  -8.2786693775670495e-01  -8.6847994921084992e-01  -9.3655242621853829e-01  -1.0285009774119791e+00  -1.1398605169717064e+00  -1.2654652009965357e+00  -1.3996559017626604e+00  -1.5365061539120244e+00  -1.6700577766679927e+00  -1.7945570122534900e+00  -1.9046820154662054e+00  -1.9957528779646261e+00  -2.0639160586628367e+00  -2.1062960892870701e+00  -2.1211086942036457e+00  -2.1077309582642529e+00  -2.0667258379069509e+00  -1.9998200767407082e+00  -1.9098363889373606e+00  -1.8005825435890841e+00  -1.6767016539525896e+00  -1.5434894814330009e+00  -1.4066858497195165e+00  -1.2722482814204656e+00  -1.1461166774088223e+00  -1.0339782344863298e+00  -9.4104182724103536e-01  -8.7183076484471622e-01  -8.3000217329566062e-01  -8.1820158694044698e-01  -8.3786322962360837e-01  -7.5423214237838765e-01  -7.2937081659713476e-01  -7.3274679215719540e-01  -7.6323243552220499e-01  -8.1861105138580770e-01  -8.9573379277340470e-01  -9.9065138267045705e-01  -1.0987767280597878e+00  -1.2150713677974345e+00  -1.3342485510899555e+00  -1.4509850787181617e+00  -1.5601336981200855e+00  -1.6569278253545237e+00  -1.7371706706263028e+00  -1.7974014533385740e+00  -1.8350322835385193e+00  -1.8484504248176867e+00  -1.8370819945747532e+00  -1.8014146507131996e+00  -1.7429784012964167e+00  -1.6642852952338396e+00  -1.5687303465536488e+00  -1.4604575493178107e+00  -1.3441961991393629e+00  -1.2250738993123720e+00  -1.1084135484555064e+00  -9.9952225036067288e-01  -9.0348043175927439e-01  -8.2493948630843350e-01  -7.6793598633836113e-01  -7.3572991236275742e-01  -7.3067476186208380e-01  -7.5403081199879629e-01  -6.4145014972070691e-01  -6.1230836138624067e-01  -6.0720909943890267e-01  -6.2529600511657424e-01  -6.6478672367459091e-01  -7.2309821925071416e-01  -7.9695861279226232e-01  -8.8254509451805074e-01  -9.7564208014576304e-01  -1.0718135396158088e+00  -1.1665828526453883e+00  -1.2556132435269249e+00  -1.3348818216969280e+00  -1.4008405014115859e+00  -1.4505575827275576e+00  -1.4818345264069719e+00  -1.4932934168252436e+00  -1.4844317431284193e+00  -1.4556423950782176e+00  -1.4081981181678349e+00  -1.3442010518714187e+00  -1.2664993305364236e+00  -1.1785740084155703e+00  -1.0844007302065743e+00  -9.8829155980272076e-01  -8.9472316776812533e-01  -8.0815813277569459e-01  -7.3286641168214595e-01  -6.7275406908260327e-01  -6.3120612957011313e-01  -6.1094991714125635e-01  -6.1394572421276894e-01  -6.4122046828115709e-01  -5.0401800245730077e-01  -4.7052870038108757e-01  -4.5597624225459565e-01  -4.5981973386624581e-01  -4.8079054961663076e-01  -5.1698134665344619e-01  -5.6593357014588486e-01  -6.2474523801310100e-01  -6.9019462353959515e-01  -7.5887512527529688e-01  -8.2733615163015661e-01  -8.9222459898281137e-01  -9.5042146884372125e-01  -9.9916835203946686e-01  -1.0361788978852728e+00  -1.0597309667679808e+00  -1.0687359132639751e+00  -1.0627823336079545e+00  -1.0421526021589254e+00  -1.0078115791194993e+00  -9.6136795353908100e-01  -9.0500975189407196e-01  -8.4141655295330964e-01  -7.7365186335062353e-01  -7.0503989309244819e-01  -6.3903159644310736e-01  -5.7906528602487473e-01  -5.2842737276101515e-01  -4.9011882246291250e-01  -4.6673275032320849e-01  -4.6034819121076781e-01  -4.7244561048756117e-01  -5.0376761390854763e-01  -3.4721697423516368e-01  -3.0943986382847177e-01  -2.8477949626601218e-01  -2.7304286030970548e-01  -2.7353501843869876e-01  -2.8510853754292637e-01  -3.0622316198218502e-01  -3.3501920842320976e-01  -3.6940191585374754e-01  -4.0713358077557854e-01  -4.4592997646300020e-01  -4.8355736750130457e-01  -5.1792639274540997e-01  -5.4717920190072289e-01  -5.6976648663607432e-01  -5.8451143651527748e-01  -5.9065815628794605e-01  -5.8790268462552275e-01  -5.7640543242458742e-01  -5.5678458302505685e-01  -5.3009074093629838e-01  -4.9776385176131582e-01  -4.6157411345153149e-01  -4.2354923372206926e-01  -3.8589093629184468e-01  -3.5088405715518561e-01  -3.2080188748868838e-01  -2.9781160012586416e-01  -2.8388363493716651e-01  -2.8070881591666325e-01  -2.8962672042047383e-01  -3.1156937734339629e-01  -3.4695466689617466e-01  -1.7707266953996573e-01  -1.3520322650773053e-01  -1.0013979662927272e-01  -7.2056565102237333e-02  -5.0870431193301160e-02  -3.6249112082712982e-02  -2.7640565816272198e-02  -2.4309060382745665e-02  -2.5376842553458040e-02  -2.9869901372363516e-02  -3.6766130560838516e-02  -4.5044074911588947e-02  -5.3730404759054398e-02  -6.1944299292402721e-02  -6.8937032232336659e-02  -7.4125235903586328e-02  -7.7116564613331773e-02  -7.7726776195129299e-02  -7.5987587625480302e-02  -7.2145025215166914e-02  -6.6648368200536129e-02  -6.0130159630283384e-02  -5.3378118344407956e-02  -4.7300116804865483e-02  -4.2883677261480409e-02  -4.1151674966670736e-02  -4.3116112831393688e-02  -4.9731940238611674e-02  -6.1852927792543318e-02  -8.0191578185994886e-02  -1.0528494368341480e-01  -1.3746878478270441e-01  -1.7680804736645131e-01  -1.2346461791217761e-04   4.5502911239209805e-02   9.0882119029662908e-02   1.3546741391051015e-01   1.7871527948912291e-01   2.2011879252298983e-01   2.5920969750319955e-01   2.9556116189500076e-01   3.2879049662289017e-01   3.5856162250617885e-01   3.8458710650122979e-01   4.0662963798239748e-01   4.2450285884213557e-01   4.3807150044891857e-01   4.4725081598843719e-01   4.5200532756960360e-01   4.5234693259862163e-01   4.4833243509925730e-01   4.4006058291274480e-01   4.2766870051203182e-01   4.1132901185298842e-01   3.9124474581539248e-01   3.6764610860126373e-01   3.4078619508126595e-01   3.1093689240346623e-01   2.7838480509581265e-01   2.4342720253605005e-01   2.0636795595265400e-01   1.6751339438356572e-01   1.2716796713807196e-01   8.5629561939702295e-02   4.3183779578387822e-02   1.3341501409590864e-04   1.7683075681110536e-01   2.2573974429860039e-01   2.8095659321106353e-01   3.4157090586209327e-01   4.0642180574555364e-01   4.7417131050058248e-01   5.4333793641665118e-01   6.1233828213670238e-01   6.7953414186745376e-01   7.4328320948338278e-01   8.0199132967283704e-01   8.5416422578032192e-01   8.9845667800450169e-01   9.3371724055044381e-01   9.5902676835532241e-01   9.7372926632903090e-01   9.7745387029341801e-01   9.7012710662676349e-01   9.5197494431238416e-01   9.2351453746369416e-01   8.8553594164693639e-01   8.3907445905166944e-01   7.8537461353822946e-01   7.2584706119301790e-01   6.6201999396174760e-01   5.9548678394543908e-01   5.2785173471756686e-01   4.6067584908409570e-01   3.9542448689382392e-01   3.3341867210686349e-01   2.7579162324099749e-01   2.2345156898083421e-01   1.7706976559334578e-01   3.4698991722216577e-01   3.9857453394620507e-01   4.6276655074453504e-01   5.3831487011198476e-01   6.2347430008406657e-01   7.1611593338139434e-01   8.1379109954422102e-01   9.1381028945479903e-01   1.0133329607911250e+00   1.1094646364779341e+00   1.1993574608342290e+00   1.2803102797881194e+00   1.3498643559248940e+00   1.4058910152606154e+00   1.4466678436487002e+00   1.4709404973790048e+00   1.4779677468784069e+00   1.4675480136306378e+00   1.4400263669638340e+00   1.3962816902274344e+00   1.3376944771766299e+00   1.2660964525234193e+00   1.1837038953537136e+00   1.0930371548427407e+00   9.9682936166748037e-01   8.9792773421336602e-01   7.9919114117821322e-01   7.0338769994514228e-01   6.1309615746399204e-01   5.3061461825751244e-01   4.5787985671109216e-01   3.9639999636454371e-01   3.4720124446557743e-01   5.0381506619849592e-01   5.5734708804125122e-01   6.2928880583466162e-01   7.1808465993675263e-01   8.2146081248743830e-01   9.3656810679612634e-01   1.0600740195576757e+00   1.1882760063854725e+00   1.3172306614718370e+00   1.4428935877462070e+00   1.5612644945707546e+00   1.6685318757266330e+00   1.7612116637902806e+00   1.8362745068507418e+00   1.8912567635176574e+00   1.9243509444434621e+00   1.9344721194980761e+00   1.9212977321907487e+00   1.8852792798388760e+00   1.8276253910746336e+00   1.7502569228107163e+00   1.6557357630035636e+00   1.5471700235387205e+00   1.4280992020028171e+00   1.3023636462443740e+00   1.1739632430909781e+00   1.0469106486312718e+00   9.2508456582600096e-01   8.1208854811437703e-01   7.1112056284180636e-01   6.2485809148057680e-01   5.5536316554435239e-01   5.0398959898084328e-01   6.4127966621343580e-01   6.9592591136411741e-01   7.7406436772045373e-01   8.7388326253355442e-01   9.9265636964656567e-01   1.1269128752013411e+00   1.2725539115718034e+00   1.4249960868551568e+00   1.5793351536802855e+00   1.7305233884411764e+00   1.8735537583475890e+00   2.0036437305540380e+00   2.1164116182665960e+00   2.2080386652153585e+00   2.2754106301372787e+00   2.3162334263370732e+00   2.3291183710147854e+00   2.3136337650014065e+00   2.2703208120073430e+00   2.2006732505980620e+00   2.1070814577655601e+00   1.9927431380920531e+00   1.8615439863258418e+00   1.7179128537319053e+00   1.5666569170533788e+00   1.4127831054720834e+00   1.2613125559634883e+00   1.1170951208506106e+00   9.8463092982286293e-01   8.6790571220204804e-01   7.7024601628934786e-01   6.9420017313920623e-01   6.4140934683433071e-01   7.5410118629928391e-01   8.0894418520344313e-01   8.9144736437538896e-01   9.9960125680597067e-01   1.1303212562592564e+00   1.2796376931700573e+00   1.4428325980455512e+00   1.6146080279515616e+00   1.7892780801723187e+00   1.9609770811720504e+00   2.1238758518655461e+00   2.2723976773624321e+00   2.4014256484794259e+00   2.5064933923407944e+00   2.5839518582487551e+00   2.6311057516466247e+00   2.6463143766187995e+00   2.6290530122819535e+00   2.5799324609681062e+00   2.5006760065970930e+00   2.3940546498709190e+00   2.2637830817623290e+00   2.1143803561141197e+00   1.9510005698716046e+00   1.7792400036776554e+00   1.6049280725407395e+00   1.4339100522011312e+00   1.2718298551136669e+00   1.1239211177922925e+00   9.9481452642706281e-01   8.8836864598612519e-01   8.0753133058649396e-01   7.5417933384945468e-01   8.3794410371674866e-01   8.9200651211723914e-01   9.7682302827173695e-01   1.0902531315357844e+00   1.2289620583868663e+00   1.3886236395210430e+00   1.5640721828630311e+00   1.7494892716885375e+00   1.9386168790908040e+00   2.1249884882724484e+00   2.3021692521129258e+00   2.4639959165788334e+00   2.6048072674268430e+00   2.7196562396222097e+00   2.8044955439508708e+00   2.8563296872293642e+00   2.8733275535136058e+00   2.8548912271529616e+00   2.8016784148321996e+00   2.7155775998404099e+00   2.5996368709339475e+00   2.4579491400288211e+00   2.2954981310539315e+00   2.1179710227116817e+00   1.9315449037898051e+00   1.7426552037100738e+00   1.5577549532287336e+00   1.3830740847457694e+00   1.2243879827332436e+00   1.0868041354203615e+00   9.7457501382348954e-01   8.9094522743350135e-01   8.3796568817114447e-01   8.8958651126599519e-01   9.4185848604323064e-01   1.0267863825553589e+00   1.1421709085894911e+00   1.2845454717812042e+00   1.4493838831928041e+00   1.6312617001485745e+00   1.8240544814282442e+00   2.0211639587695172e+00   2.2157633324238590e+00   2.4010522030478918e+00   2.5705113179273975e+00   2.7181473384663284e+00   2.8387182335090007e+00   2.9279306543579438e+00   2.9826017254294270e+00   3.0007790512127199e+00   2.9818143417799425e+00   2.9263878354402291e+00   2.8364825814912997e+00   2.7153095651779200e+00   2.5671865386709047e+00   2.3973751939368890e+00   2.2118829085318326e+00   2.0172366543895133e+00   1.8202377301353472e+00   1.6277067211393286e+00   1.4462284812111610e+00   1.2819069459106667e+00   1.1401392263703960e+00   1.0254176776971462e+00   9.4116867639229973e-01   8.8954837027985667e-01   9.0704393098900515e-01   9.5651258014944818e-01   1.0392747843980814e+00   1.1531476694217462e