<VTKFile type="UnstructuredGrid" version="0.1" byte_order="LittleEndian">
<UnstructuredGrid>
<Piece NumberOfPoints="289" NumberOfCells="512">
<Points>
<DataArray type="Float64" NumberOfComponents="3" Format="ascii">  0.0000000000000000e+00  0.0000000000000000e+00  0.0000000000000000e+00   6.2500000000000000e-02  0.0000000000000000e+00  0.0000000000000000e+00   1.2500000000000000e-01  0.0000000000000000e+00  0.0000000000000000e+00   1.8750000000000000e-01  0.0000000000000000e+00  0.0000000000000000e+00   2.5000000000000000e-01  0.0000000000000000e+00  0.0000000000000000e+00   3.1250000000000000e-01  0.0000000000000000e+00  0.0000000000000000e+00   3.7500000000000000e-01  0.0000000000000000e+00  0.0000000000000000e+00   4.3750000000000000e-01  0.0000000000000000e+00  0.0000000000000000e+00   5.0000000000000000e-01  0.0000000000000000e+00  0.0000000000000000e+00   5.6250000000000000e-01  0.0000000000000000e+00  0.0000000000000000e+00   6.2500000000000000e-01  0.0000000000000000e+00  0.0000000000000000e+00   6.8750000000000000e-01  0.0000000000000000e+00  0.0000000000000000e+00   7.5000000000000000e-01  0.0000000000000000e+00  0.0000000000000000e+00   8.1250000000000000e-01  0.0000000000000000e+00  0.0000000000000000e+00   8.7500000000000000e-01  0.0000000000000000e+00  0.0000000000000000e+00   9.3750000000000000e-01  0.0000000000000000e+00  0.0000000000000000e+00   1.0000000000000000e+00  0.0000000000000000e+00  0.0000000000000000e+00   0.0000000000000000e+00  6.2500000000000000e-02  0.0000000000000000e+00   6.2500000000000000e-02  6.2500000000000000e-02  0.0000000000000000e+00   1.2500000000000000e-01  6.2500000000000000e-02  0.0000000000000000e+00   1.8750000000000000e-01  6.2500000000000000e-02  0.0000000000000000e+00   2.5000000000000000e-01  6.2500000000000000e-02  0.0000000000000000e+00   3.1250000000000000e-01  6.2500000000000000e-02  0.0000000000000000e+00   3.7500000000000000e-01  6.2500000000000000e-02  0.0000000000000000e+00   4.3750000000000000e-01  6.2500000000000000e-02  0.0000000000000000e+00   5.0000000000000000e-01  6.2500000000000000e-02  0.0000000000000000e+00   5.6250000000000000e-01  6.2500000000000000e-02  0.0000000000000000e+00   6.2500000000000000e-01  6.2500000000000000e-02  0.0000000000000000e+00   6.8750000000000000e-01  6.2500000000000000e-02  0.0000000000000000e+00   7.5000000000000000e-01  6.2500000000000000e-02  0.0000000000000000e+00   8.1250000000000000e-01  6.2500000000000000e-02  0.0000000000000000e+00   8.7500000000000000e-01  6.2500000000000000e-02  0.0000000000000000e+00   9.3750000000000000e-01  6.2500000000000000e-02  0.0000000000000000e+00   1.0000000000000000e+00  6.2500000000000000e-02  0.0000000000000000e+00   0.0000000000000000e+00  1.2500000000000000e-01  0.0000000000000000e+00   6.2500000000000000e-02  1.2500000000000000e-01  0.0000000000000000e+00   1.2500000000000000e-01  1.2500000000000000e-01  0.0000000000000000e+00   1.8750000000000000e-01  1.2500000000000000e-01  0.0000000000000000e+00   2.5000000000000000e-01  1.2500000000000000e-01  0.0000000000000000e+00   3.1250000000000000e-01  1.2500000000000000e-01  0.0000000000000000e+00   3.7500000000000000e-01  1.2500000000000000e-01  0.0000000000000000e+00   4.3750000000000000e-01  1.2500000000000000e-01  0.0000000000000000e+00   5.0000000000000000e-01  1.2500000000000000e-01  0.0000000000000000e+00   5.6250000000000000e-01  1.2500000000000000e-01  0.0000000000000000e+00   6.2500000000000000e-01  1.2500000000000000e-01  0.0000000000000000e+00   6.8750000000000000e-01  1.2500000000000000e-01  0.0000000000000000e+00   7.5000000000000000e-01  1.2500000000000000e-01  0.0000000000000000e+00   8.1250000000000000e-01  1.2500000000000000e-01  0.0000000000000000e+00   8.7500000000000000e-01  1.2500000000000000e-01  0.0000000000000000e+00   9.3750000000000000e-01  1.2500000000000000e-01  0.0000000000000000e+00   1.0000000000000000e+00  1.2500000000000000e-01  0.0000000000000000e+00   0.0000000000000000e+00  1.8750000000000000e-01  0.0000000000000000e+00   6.2500000000000000e-02  1.8750000000000000e-01  0.0000000000000000e+00   1.2500000000000000e-01  1.8750000000000000e-01  0.0000000000000000e+00   1.8750000000000000e-01  1.8750000000000000e-01  0.0000000000000000e+00   2.5000000000000000e-01  1.8750000000000000e-01  0.0000000000000000e+00   3.1250000000000000e-01  1.8750000000000000e-01  0.0000000000000000e+00   3.7500000000000000e-01  1.8750000000000000e-01  0.0000000000000000e+00   4.3750000000000000e-01  1.8750000000000000e-01  0.0000000000000000e+00   5.0000000000000000e-01  1.8750000000000000e-01  0.0000000000000000e+00   5.6250000000000000e-01  1.8750000000000000e-01  0.0000000000000000e+00   6.2500000000000000e-01  1.8750000000000000e-01  0.0000000000000000e+00   6.8750000000000000e-01  1.8750000000000000e-01  0.0000000000000000e+00   7.5000000000000000e-01  1.8750000000000000e-01  0.0000000000000000e+00   8.1250000000000000e-01  1.8750000000000000e-01  0.0000000000000000e+00   8.7500000000000000e-01  1.8750000000000000e-01  0.0000000000000000e+00   9.3750000000000000e-01  1.8750000000000000e-01  0.0000000000000000e+00   1.0000000000000000e+00  1.8750000000000000e-01  0.0000000000000000e+00   0.0000000000000000e+00  2.5000000000000000e-01  0.0000000000000000e+00   6.2500000000000000e-02  2.5000000000000000e-01  0.0000000000000000e+00   1.2500000000000000e-01  2.5000000000000000e-01  0.0000000000000000e+00   1.8750000000000000e-01  2.5000000000000000e-01  0.0000000000000000e+00   2.5000000000000000e-01  2.5000000000000000e-01  0.0000000000000000e+00   3.1250000000000000e-01  2.5000000000000000e-01  0.0000000000000000e+00   3.7500000000000000e-01  2.5000000000000000e-01  0.0000000000000000e+00   4.3750000000000000e-01  2.5000000000000000e-01  0.0000000000000000e+00   5.0000000000000000e-01  2.5000000000000000e-01  0.0000000000000000e+00   5.6250000000000000e-01  2.5000000000000000e-01  0.0000000000000000e+00   6.2500000000000000e-01  2.5000000000000000e-01  0.0000000000000000e+00   6.8750000000000000e-01  2.5000000000000000e-01  0.0000000000000000e+00   7.5000000000000000e-01  2.5000000000000000e-01  0.0000000000000000e+00   8.1250000000000000e-01  2.5000000000000000e-01  0.0000000000000000e+00   8.7500000000000000e-01  2.5000000000000000e-01  0.0000000000000000e+00   9.3750000000000000e-01  2.5000000000000000e-01  0.0000000000000000e+00   1.0000000000000000e+00  2.5000000000000000e-01  0.0000000000000000e+00   0.0000000000000000e+00  3.1250000000000000e-01  0.0000000000000000e+00   6.2500000000000000e-02  3.1250000000000000e-01  0.0000000000000000e+00   1.2500000000000000e-01  3.1250000000000000e-01  0.0000000000000000e+00   1.8750000000000000e-01  3.1250000000000000e-01  0.0000000000000000e+00   2.5000000000000000e-01  3.1250000000000000e-01  0.0000000000000000e+00   3.1250000000000000e-01  3.1250000000000000e-01  0.0000000000000000e+00   3.7500000000000000e-01  3.1250000000000000e-01  0.0000000000000000e+00   4.3750000000000000e-01  3.1250000000000000e-01  0.0000000000000000e+00   5.0000000000000000e-01  3.1250000000000000e-01  0.0000000000000000e+00   5.6250000000000000e-01  3.1250000000000000e-01  0.0000000000000000e+00   6.2500000000000000e-01  3.1250000000000000e-01  0.0000000000000000e+00   6.8750000000000000e-01  3.1250000000000000e-01  0.0000000000000000e+00   7.5000000000000000e-01  3.1250000000000000e-01  0.0000000000000000e+00   8.1250000000000000e-01  3.1250000000000000e-01  0.0000000000000000e+00   8.7500000000000000e-01  3.1250000000000000e-01  0.0000000000000000e+00   9.3750000000000000e-01  3.1250000000000000e-01  0.0000000000000000e+00   1.0000000000000000e+00  3.1250000000000000e-01  0.0000000000000000e+00   0.0000000000000000e+00  3.7500000000000000e-01  0.0000000000000000e+00   6.2500000000000000e-02  3.7500000000000000e-01  0.0000000000000000e+00   1.2500000000000000e-01  3.7500000000000000e-01  0.0000000000000000e+00   1.8750000000000000e-01  3.7500000000000000e-01  0.0000000000000000e+00   2.5000000000000000e-01  3.7500000000000000e-01  0.0000000000000000e+00   3.1250000000000000e-01  3.7500000000000000e-01  0.0000000000000000e+00   3.7500000000000000e-01  3.7500000000000000e-01  0.0000000000000000e+00   4.3750000000000000e-01  3.7500000000000000e-01  0.0000000000000000e+00   5.0000000000000000e-01  3.7500000000000000e-01  0.0000000000000000e+00   5.6250000000000000e-01  3.7500000000000000e-01  0.0000000000000000e+00   6.2500000000000000e-01  3.7500000000000000e-01  0.0000000000000000e+00   6.8750000000000000e-01  3.7500000000000000e-01  0.0000000000000000e+00   7.5000000000000000e-01  3.7500000000000000e-01  0.0000000000000000e+00   8.1250000000000000e-01  3.7500000000000000e-01  0.0000000000000000e+00   8.7500000000000000e-01  3.7500000000000000e-01  0.0000000000000000e+00   9.3750000000000000e-01  3.7500000000000000e-01  0.0000000000000000e+00   1.0000000000000000e+00  3.7500000000000000e-01  0.0000000000000000e+00   0.0000000000000000e+00  4.3750000000000000e-01  0.0000000000000000e+00   6.2500000000000000e-02  4.3750000000000000e-01  0.0000000000000000e+00   1.2500000000000000e-01  4.3750000000000000e-01  0.0000000000000000e+00   1.8750000000000000e-01  4.3750000000000000e-01  0.0000000000000000e+00   2.5000000000000000e-01  4.3750000000000000e-01  0.0000000000000000e+00   3.1250000000000000e-01  4.3750000000000000e-01  0.0000000000000000e+00   3.7500000000000000e-01  4.3750000000000000e-01  0.0000000000000000e+00   4.3750000000000000e-01  4.3750000000000000e-01  0.0000000000000000e+00   5.0000000000000000e-01  4.3750000000000000e-01  0.0000000000000000e+00   5.6250000000000000e-01  4.3750000000000000e-01  0.0000000000000000e+00   6.2500000000000000e-01  4.3750000000000000e-01  0.0000000000000000e+00   6.8750000000000000e-01  4.3750000000000000e-01  0.0000000000000000e+00   7.5000000000000000e-01  4.3750000000000000e-01  0.0000000000000000e+00   8.1250000000000000e-01  4.3750000000000000e-01  0.0000000000000000e+00   8.7500000000000000e-01  4.3750000000000000e-01  0.0000000000000000e+00   9
[...]
<PointData Scalars="scalars">
<DataArray type="Float64" Name="Solution Component 0 - ux" Format="ascii"> -2.1277815074859408e-04   1.0962104938193935e-04   6.8447441559487930e-06  -6.0357792660007203e-05  -1.6451857426355592e-04  -2.7400691633762078e-04  -3.7338443356767725e-04  -4.4582640055921451e-04  -4.7873975485086535e-04  -4.6546518242146636e-04  -4.0673090725040946e-04  -3.0914161942487237e-04  -1.9207651409196446e-04  -4.8786142666825785e-05  -1.4193474283542440e-05   4.0097200482022195e-04  -6.2565100004617201e-04  -3.4870822574396781e-01  -3.6243666887331050e-01  -4.2424349280248908e-01  -5.2220349410282574e-01  -6.3941514429912572e-01  -7.5650220738495122e-01  -8.5450645329040931e-01  -9.1772482727176241e-01  -9.3609747007830979e-01  -9.0674540010968296e-01  -8.3441266591790020e-01  -7.3073544941926716e-01  -6.1244045436820072e-01  -4.9873128800893163e-01  -4.0823587319200061e-01  -3.5588294456675623e-01  -3.5015003005903444e-01  -6.4556954046178283e-01  -6.6618642074249013e-01  -7.7497767813382068e-01  -9.5118663718179108e-01  -1.1644001243571565e+00  -1.3792848608967414e+00  -1.5609055941033478e+00  -1.6800311032844559e+00  -1.7176082816098250e+00  -1.6676859390415029e+00  -1.5383283673681358e+00  -1.3503671190128466e+00  -1.1341701671620719e+00  -9.2490570323080212e-01  -7.5699657699442036e-01  -6.5856143555847824e-01  -6.4658855290310258e-01  -8.4393810894328414e-01  -8.6307359622452429e-01  -9.9685819148179544e-01  -1.2196258569206848e+00  -1.4926423528132962e+00  -1.7703055333747477e+00  -2.0071142809788087e+00  -2.1646593702353325e+00  -2.2175406260331512e+00  -2.1572834602791344e+00  -1.9936449406923518e+00  -1.7531013173021557e+00  -1.4747405429273139e+00  -1.2041784057062825e+00  -9.8641546947503556e-01  -8.5871014863213080e-01  -8.4434263512190089e-01  -9.1386728205554513e-01  -9.2199688639194632e-01  -1.0540502067216702e+00  -1.2837923655051331e+00  -1.5704200912088040e+00  -1.8652380996268030e+00  -2.1192164733757997e+00  -2.2906043552086337e+00  -2.3514089460087262e+00  -2.2917366278921105e+00  -2.1213270990465141e+00  -1.8680431200750558e+00  -1.5735456263402274e+00  -1.2868161959298989e+00  -1.0565212335804981e+00  -9.2340053401132793e-01  -9.1355442132193965e-01  -8.4467436463839840e-01  -8.3286199248771164e-01  -9.3573059985657558e-01  -1.1308473786700013e+00  -1.3818632794657975e+00  -1.6446242552836028e+00  -1.8741738707327433e+00  -2.0318303027536251e+00  -2.0912488017709068e+00  -2.0425404416304991e+00  -1.8938186151520482e+00  -1.6699398867882158e+00  -1.4086375027866791e+00  -1.1546490967136829e+00  -9.5275515873453831e-01  -8.4083205624226254e-01  -8.4364123063276841e-01  -6.4689115501367511e-01  -6.0823688343094584e-01  -6.5798392905141412e-01  -7.8125440777995125e-01  -9.5198643632181068e-01  -1.1375274677990372e+00  -1.3040107019168168e+00  -1.4218167814749463e+00  -1.4702987944475432e+00  -1.4410569500762589e+00  -1.3392697735134282e+00  -1.1828866471945003e+00  -9.9981663289512923e-01  -8.2356133536110354e-01  -6.8798907573703827e-01  -6.2210415468643587e-01  -6.4527212341223128e-01  -3.5062537108644465e-01  -2.8154568926943929e-01  -2.6157603441184230e-01  -2.8599706410147491e-01  -3.4330653316508031e-01  -4.1758322967659073e-01  -4.9140902246675144e-01  -5.4887816121596489e-01  -5.7826313632975490e-01  -5.7394665845679105e-01  -5.3733690263341993e-01  -4.7663806161017636e-01  -4.0552645456710473e-01  -3.4095716935944548e-01  -3.0047182827409002e-01  -2.9948034877898422e-01  -3.4865111511107466e-01  -9.7564452061263450e-04   9.7960955674794598e-02   1.9410648026320523e-01   2.8095831238326607e-01   3.5339263057439091e-01   4.0789814522037365e-01   4.4256550594804223e-01   4.5699750371630116e-01   4.5211427449627123e-01   4.2986161658757027e-01   3.9285220312499897e-01   3.4398115360631770e-01   2.8605832045062818e-01   2.2149004902496186e-01   1.5202332368333890e-01   7.8532625682969301e-02   1.0559331187483128e-03   3.4883145130272175e-01   4.7266014786924665e-01   6.4000737351121695e-01   8.3379009189825393e-01   1.0327155863781037e+00   1.2140847636634429e+00   1.3567092061211992e+00   1.4437663843612873e+00   1.4651141636502381e+00   1.4186893018241182e+00   1.3107621698368039e+00   1.1549963866931485e+00   9.7044231268577119e-01   7.7875020125213801e-01   6.0099801364316963e-01   4.5457087181266992e-01   3.5060249258042880e-01   6.4554560753044898e-01   7.8531561307812414e-01   1.0078821621571359e+00   1.2878382858737445e+00   1.5906388981533612e+00   1.8775574177197134e+00   2.1111040638154761e+00   2.2604053700937379e+00   2.3056855283663591e+00   2.2411479874070475e+00   2.0758067496522550e+00   1.8321315547033887e+00   1.5427030568218021e+00   1.2453739023332080e+00   9.7765349769501364e-01   7.7114481163621373e-01   6.4676629836163602e-01   8.4399765081854827e-01   9.8780393946206524e-01   1.2407127865536460e+00   1.5725275934699523e+00   1.9403864470320296e+00   2.2951366090058687e+00   2.5884507071820173e+00   2.7799268096895942e+00   2.8430637075968468e+00   2.7691908316354366e+00   2.5687488924748028e+00   2.2697221942061390e+00   1.9134567236991018e+00   1.5484952814482886e+00   1.2233619552218036e+00   9.7939191478658549e-01   8.4445141269816071e-01   9.1397883756954956e-01   1.0484849896548041e+00   1.3014774129938296e+00   1.6422372836721624e+00   2.0257862529089179e+00   2.3997395696766568e+00   2.7120621620921144e+00   2.9188227065076595e+00   2.9907588570630308e+00   2.9176561107204968e+00   2.7098763740254230e+00   2.3968058378005215e+00   2.0224601297708742e+00   1.6389182310994397e+00   1.2985904144999538e+00   1.0465208699582518e+00   9.1355801245060941e-01   8.4482665359625786e-01   9.5710126682080099e-01   1.1789560016210447e+00   1.4834835126008696e+00   1.8300949981098553e+00   2.1708674198325437e+00   2.4577847344401427e+00   2.6499741104619763e+00   2.7198587026637786e+00   2.6573075104788608e+00   2.4711621450220282e+00   2.1879166509941270e+00   1.8477585577378564e+00   1.4985840519874019e+00   1.1889096255111353e+00   9.6080178795353532e-01   8.4354554389729164e-01   6.4707409812016869e-01   7.2646385225972898e-01   8.8971509400431881e-01   1.1173599446684981e+00   1.3789859931210495e+00   1.6381556226126719e+00   1.8580455981027721e+00   2.0070573177741657e+00   2.0636003298178016e+00   2.0193521622362578e+00   1.8805161985443837e+00   1.6668983886550390e+00   1.4089537058744668e+00   1.1432677868230274e+00   9.0718080956983993e-01   7.3339816945919367e-01   6.4512768031491974e-01   3.5082148382351536e-01   3.9070974765155264e-01   4.7602924092144139e-01   5.9693850488747413e-01   7.3731784532041045e-01   8.7750177249977823e-01   9.9743943960531134e-01   1.0797753963284236e+00   1.1124862038541914e+00   1.0906961437285860e+00   1.0174126126928240e+00   9.0307893586176213e-01   7.6402008525861398e-01   6.2003458961305469e-01   4.9150862549338825e-01   3.9654273245689492e-01   3.4824208880820318e-01   5.7478333594758685e-04  -1.7108029223883789e-04   1.8445637191472560e-04   2.1533452423781871e-04   3.4384689761689149e-04   4.3916414134411027e-04   5.1071976604944553e-04   5.3917022420973699e-04   5.1939084090368588e-04   4.5190523869107261e-04   3.4437618162029760e-04   2.1220605455879931e-04   6.7351728581199982e-05  -4.8394156756738244e-05  -2.0311666524281400e-04  -7.4849809613083092e-05  -6.9444075169215226e-04 </DataArray>
<DataArray type="Float64" Name="Solution Component 1 - uy" Format="ascii"> -6.9446531854935997e-04   3.4824212706457952e-01   6.4512762664326451e-01   8.4354543775997415e-01   9.1355785149636881e-01   8.4445120827172837e-01   6.4676606019498606e-01   3.5060223302336829e-01   1.0556657186903736e-03  -3.4865137854691258e-01  -6.4527236940860899e-01  -8.4364144663638263e-01  -9.1355459452473409e-01  -8.4434275540644144e-01  -6.4658860434876941e-01  -3.5014996355572825e-01  -6.2580634902988520e-04  -7.4770925804620579e-05   3.9654117550700396e-01   7.3339511475763186e-01   9.6079784112253619e-01   1.0465166674524304e+00   9.7938803983599920e-01   7.7114174075069253e-01   4.5456895793499646e-01   7.8532063310687725e-02  -2.9947950780638138e-01  -6.2210199517804687e-01  -8.4082881181179303e-01  -9.2339656261036285e-01  -8.5870592825438019e-01  -6.5855756735707915e-01  -3.5588025048044308e-01   4.0114015759108750e-04  -2.0302125552257473e-04   4.9150419068350171e-01   9.0717241521197400e-01   1.1888984134612393e+00   1.2985776533014102e+00   1.2233488475343994e+00   9.7764109500031249e-01   6.0098714839185430e-01   1.5201459226931005e-01  -3.0047806690151863e-01  -6.8799272251583454e-01  -9.5275636751076709e-01  -1.0565203981585967e+00  -9.8641320582188929e-01  -7.5699373319258634e-01  -4.0823360039157941e-01  -1.4148229099075820e-05  -4.8268471460496246e-05   6.2002674465528607e-01   1.1432531324432320e+00   1.4985642313441165e+00   1.6388950370800310e+00   1.5484704645151424e+00   1.2453490387867687e+00   7.7872663872747272e-01   2.2146887357632791e-01  -3.4097517556000939e-01  -8.2357570732863861e-01  -1.1546596941906251e+00  -1.2868231885555259e+00  -1.2041822633158510e+00  -9.2490718103064740e-01  -4.9873137676492552e-01  -4.8675938639281844e-05   6.7498112457701283e-05   7.6400892026225442e-01   1.4089329797884551e+00   1.8477303261031099e+00   2.0224265740571163e+00   1.9134199819767310e+00   1.5426651337509834e+00   9.7040501844332494e-01   2.8602320199666503e-01  -4.0555815013355972e-01  -9.9984399088682907e-01  -1.4086599510390883e+00  -1.5735629414551062e+00  -1.4747528370859664e+00  -1.1341778104343565e+00  -6.1244397338996326e-01  -1.9195475866059353e-04   2.1236924732694672e-04   9.0306505447898455e-01   1.6668726708597976e+00   2.1878814272937039e+00   2.3967634881764046e+00   2.2696750841034472e+00   1.8320819755022029e+00   1.1549464777228864e+00   3.4393284925968642e-01  -4.7668308506773516e-01  -1.1829270076170115e+00  -1.6699745321196326e+00  -1.8680713452819842e+00  -1.7531227168283892e+00  -1.3503815179246612e+00  -7.3074274569142494e-01  -3.0899730240984362e-04   3.4454996323930314e-04   1.0173969746303770e+00   1.8804872183885806e+00   2.4711222177741443e+00   2.7098278992575131e+00   2.5686942866181752e+00   2.0757484028501971e+00   1.3107024050555498e+00   3.9279321982073856e-01  -5.3739307843891815e-01  -1.3393213489202429e+00  -1.8938640802003337e+00  -2.1213652213582082e+00  -1.9936747521965184e+00  -1.5383490860670279e+00  -8.3442350490470896e-01  -4.0657130306492824e-04   4.5208362761836726e-04   1.0906799298392638e+00   2.0193220270899697e+00   2.6572657156845310e+00   2.9176048907371248e+00   2.7691324527819012e+00   2.2410847664930187e+00   1.4186235802422360e+00   4.2979572049799331e-01  -5.7401048306984592e-01  -1.4411166062290461e+00  -2.0425940088616636e+00  -2.2917823983079026e+00  -2.1573199327136892e+00  -1.6677117364670535e+00  -9.0675910124374026e-01  -4.6529368082511057e-04   5.1956901483132670e-04   1.1124706569633200e+00   2.0635712887756772e+00   2.7198181017706666e+00   2.9907085707630983e+00   2.8430056873081222e+00   2.3056218508757964e+00   1.4650470347861622e+00   4.5204598546644192e-01  -5.7833027398694714e-01  -1.4703624885062654e+00  -2.0913068443613199e+00  -2.3514592576667424e+00  -2.2175812517704938e+00  -1.7176373429504059e+00  -9.3611302895721715e-01  -4.7856161222556534e-04   5.3934175546711067e-04   1.0797617008370142e+00   2.0070315293363268e+00   2.6499376472237666e+00   2.9187769424198580e+00   2.7798732434279732e+00   2.2603457074865028e+00   1.4437025446890033e+00   4.5693158371847276e-01  -5.4894391481240157e-01  -1.4218800407257333e+00  -2.0318887237748573e+00  -2.2906556176675887e+00  -2.1647012035890190e+00  -1.6800612687716363e+00  -9.1774105846476373e-01  -4.4564803703163729e-04   5.1087938336064228e-04   9.9742859984851406e-01   1.8580248765547491e+00   2.4577549161485490e+00   2.7120240273113629e+00   2.5884052222993148e+00   2.1110524601378069e+00   1.3566529932748914e+00   4.4250647734425430e-01  -4.9146883934498231e-01  -1.3040691054870026e+00  -1.8742285348634964e+00  -2.1192650039981524e+00  -2.0071542574988257e+00  -1.5609346120252470e+00  -8.5452211240356291e-01  -3.7321067969947873e-04   4.3930846908448920e-04   8.7749446921071994e-01   1.6381412097252381e+00   2.1708459990935571e+00   2.3997113152675231e+00   2.2951019259253451e+00   1.8775170108629513e+00   1.2140396855483295e+00   4.0784977921151583e-01  -4.1763320557548167e-01  -1.1375771165143085e+00  -1.6446714340873250e+00  -1.8652805135151875e+00  -1.7703408124414275e+00  -1.3793106203564149e+00  -7.5651611201942603e-01  -2.7384377841002243e-04   3.4396866062141949e-04   7.3731431390087321e-01   1.3789783269825879e+00   1.8300826714736447e+00   2.0257688961496441e+00   1.9403639483781856e+00   1.5906114816723522e+00   1.0326838253940824e+00   3.5335744122765600e-01  -3.4334390156510658e-01  -9.5202443403395620e-01  -1.3819000933927934e+00  -1.5704537129682257e+00  -1.4926706402255083e+00  -1.1644208921760393e+00  -6.3942633191087928e-01  -1.6437213110160351e-04   2.1544467810036031e-04   5.9693840027439782e-01   1.1173584386789586e+00   1.4834796165089279e+00   1.6422302435818006e+00   1.5725169406565136e+00   1.2878238519735143e+00   8.3377201848432347e-01   2.8093706627932918e-01  -2.8602069851068629e-01  -7.8127934226952911e-01  -1.1308722627890169e+00  -1.2838156198496384e+00  -1.2196457279265036e+00  -9.5120132853851680e-01  -5.2221135960568743e-01  -6.0232346926166297e-05   1.8450166448657622e-04   4.7603149721926874e-01   8.8971790988413713e-01   1.1789582284417985e+00   1.3014782043264339e+00   1.2407115278523821e+00   1.0078784608252656e+00   6.4000107723589461e-01   1.9409768979347783e-01  -2.6158695863969833e-01  -6.5799638867729027e-01  -9.3574376035707518e-01  -1.0540630149116117e+00  -9.9686944201206373e-01  -7.7498610042375793e-01  -4.2424793872257271e-01   6.9406684554104695e-06  -1.7091253058726521e-04   3.9071242906105630e-01   7.2646770111321279e-01   9.5710546261598428e-01   1.0484889325667048e+00   9.8780715230552696e-01   7.8531773893774504e-01   4.7266095424617943e-01   9.7960358441084208e-02  -2.8154763716027592e-01  -6.0823998633150966e-01  -8.3286589684347412e-01  -9.2200111455636014e-01  -8.6307756450582407e-01  -6.6618949034566688e-01  -3.6243823877418002e-01   1.0969901248731153e-04   5.7462822273214001e-04   3.5082154988078756e-01   6.4707404640262178e-01   8.4482653311544753e-01   9.1397866423571972e-01   8.4399743474599820e-01   6.4554536153816011e-01   3.4883118792507106e-01  -9.7591181267627023e-04  -3.5062563047362222e-01  -6.4689139298755438e-01  -8.4467456883704350e-01  -9.1386744280481924e-01  -8.4393821482193199e-01  -6.4556959399439995e-01  -3.4870818759496502e-01  -2.1280188436795355e-04 </DataArray>