<VTKFile type="UnstructuredGrid" version="0.1" byte_order="LittleEndian">
<UnstructuredGrid>
<Piece NumberOfPoints="4225" NumberOfCells="8192">
<Points>
<DataArray type="Float64" NumberOfComponents="3" Format="ascii">  0.0000000000000000e+00  0.0000000000000000e+00  0.0000000000000000e+00   1.5625000000000000e-02  0.0000000000000000e+00  0.0000000000000000e+00   3.1250000000000000e-02  0.0000000000000000e+00  0.0000000000000000e+00   4.6875000000000000e-02  0.0000000000000000e+00  0.0000000000000000e+00   6.2500000000000000e-02  0.0000000000000000e+00  0.0000000000000000e+00   7.8125000000000000e-02  0.0000000000000000e+00  0.0000000000000000e+00   9.3750000000000000e-02  0.0000000000000000e+00  0.0000000000000000e+00   1.0937500000000000e-01  0.0000000000000000e+00  0.0000000000000000e+00   1.2500000000000000e-01  0.0000000000000000e+00  0.0000000000000000e+00   1.4062500000000000e-01  0.0000000000000000e+00  0.0000000000000000e+00   1.5625000000000000e-01  0.0000000000000000e+00  0.0000000000000000e+00   1.7187500000000000e-01  0.0000000000000000e+00  0.0000000000000000e+00   1.8750000000000000e-01  0.0000000000000000e+00  0.0000000000000000e+00   2.0312500000000000e-01  0.0000000000000000e+00  0.0000000000000000e+00   2.1875000000000000e-01  0.0000000000000000e+00  0.0000000000000000e+00   2.3437500000000000e-01  0.0000000000000000e+00  0.0000000000000000e+00   2.5000000000000000e-01  0.0000000000000000e+00  0.0000000000000000e+00   2.6562500000000000e-01  0.0000000000000000e+00  0.0000000000000000e+00   2.8125000000000000e-01  0.0000000000000000e+00  0.0000000000000000e+00   2.9687500000000000e-01  0.0000000000000000e+00  0.0000000000000000e+00   3.1250000000000000e-01  0.0000000000000000e+00  0.0000000000000000e+00   3.2812500000000000e-01  0.0000000000000000e+00  0.0000000000000000e+00   3.4375000000000000e-01  0.0000000000000000e+00  0.0000000000000000e+00   3.5937500000000000e-01  0.0000000000000000e+00  0.0000000000000000e+00   3.7500000000000000e-01  0.0000000000000000e+00  0.0000000000000000e+00   3.9062500000000000e-01  0.0000000000000000e+00  0.0000000000000000e+00   4.0625000000000000e-01  0.0000000000000000e+00  0.0000000000000000e+00   4.2187500000000000e-01  0.0000000000000000e+00  0.0000000000000000e+00   4.3750000000000000e-01  0.0000000000000000e+00  0.0000000000000000e+00   4.5312500000000000e-01  0.0000000000000000e+00  0.0000000000000000e+00   4.6875000000000000e-01  0.0000000000000000e+00  0.0000000000000000e+00   4.8437500000000000e-01  0.0000000000000000e+00  0.0000000000000000e+00   5.0000000000000000e-01  0.0000000000000000e+00  0.0000000000000000e+00   5.1562500000000000e-01  0.0000000000000000e+00  0.0000000000000000e+00   5.3125000000000000e-01  0.0000000000000000e+00  0.0000000000000000e+00   5.4687500000000000e-01  0.0000000000000000e+00  0.0000000000000000e+00   5.6250000000000000e-01  0.0000000000000000e+00  0.0000000000000000e+00   5.7812500000000000e-01  0.0000000000000000e+00  0.0000000000000000e+00   5.9375000000000000e-01  0.0000000000000000e+00  0.0000000000000000e+00   6.0937500000000000e-01  0.0000000000000000e+00  0.0000000000000000e+00   6.2500000000000000e-01  0.0000000000000000e+00  0.0000000000000000e+00   6.4062500000000000e-01  0.0000000000000000e+00  0.0000000000000000e+00   6.5625000000000000e-01  0.0000000000000000e+00  0.0000000000000000e+00   6.7187500000000000e-01  0.0000000000000000e+00  0.0000000000000000e+00   6.8750000000000000e-01  0.0000000000000000e+00  0.0000000000000000e+00   7.0312500000000000e-01  0.0000000000000000e+00  0.0000000000000000e+00   7.1875000000000000e-01  0.0000000000000000e+00  0.0000000000000000e+00   7.3437500000000000e-01  0.0000000000000000e+00  0.0000000000000000e+00   7.5000000000000000e-01  0.0000000000000000e+00  0.0000000000000000e+00   7.6562500000000000e-01  0.0000000000000000e+00  0.0000000000000000e+00   7.8125000000000000e-01  0.0000000000000000e+00  0.0000000000000000e+00   7.9687500000000000e-01  0.0000000000000000e+00  0.0000000000000000e+00   8.1250000000000000e-01  0.0000000000000000e+00  0.0000000000000000e+00   8.2812500000000000e-01  0.0000000000000000e+00  0.0000000000000000e+00   8.4375000000000000e-01  0.0000000000000000e+00  0.0000000000000000e+00   8.5937500000000000e-01  0.0000000000000000e+00  0.0000000000000000e+00   8.7500000000000000e-01  0.0000000000000000e+00  0.0000000000000000e+00   8.9062500000000000e-01  0.0000000000000000e+00  0.0000000000000000e+00   9.0625000000000000e-01  0.0000000000000000e+00  0.0000000000000000e+00   9.2187500000000000e-01  0.0000000000000000e+00  0.0000000000000000e+00   9.3750000000000000e-01  0.0000000000000000e+00  0.0000000000000000e+00   9.5312500000000000e-01  0.0000000000000000e+00  0.0000000000000000e+00   9.6875000000000000e-01  0.0000000000000000e+00  0.0000000000000000e+00   9.8437500000000000e-01  0.0000000000000000e+00  0.0000000000000000e+00   1.0000000000000000e+00  0.0000000000000000e+00  0.0000000000000000e+00   0.0000000000000000e+00  1.5625000000000000e-02  0.0000000000000000e+00   1.5625000000000000e-02  1.5625000000000000e-02  0.0000000000000000e+00   3.1250000000000000e-02  1.5625000000000000e-02  0.0000000000000000e+00   4.6875000000000000e-02  1.5625000000000000e-02  0.0000000000000000e+00   6.2500000000000000e-02  1.5625000000000000e-02  0.0000000000000000e+00   7.8125000000000000e-02  1.5625000000000000e-02  0.0000000000000000e+00   9.3750000000000000e-02  1.5625000000000000e-02  0.0000000000000000e+00   1.0937500000000000e-01  1.5625000000000000e-02  0.0000000000000000e+00   1.2500000000000000e-01  1.5625000000000000e-02  0.0000000000000000e+00   1.4062500000000000e-01  1.5625000000000000e-02  0.0000000000000000e+00   1.5625000000000000e-01  1.5625000000000000e-02  0.0000000000000000e+00   1.7187500000000000e-01  1.5625000000000000e-02  0.0000000000000000e+00   1.8750000000000000e-01  1.5625000000000000e-02  0.0000000000000000e+00   2.0312500000000000e-01  1.5625000000000000e-02  0.0000000000000000e+00   2.1875000000000000e-01  1.5625000000000000e-02  0.0000000000000000e+00   2.3437500000000000e-01  1.5625000000000000e-02  0.0000000000000000e+00   2.5000000000000000e-01  1.5625000000000000e-02  0.0000000000000000e+00   2.6562500000000000e-01  1.5625000000000000e-02  0.0000000000000000e+00   2.8125000000000000e-01  1.5625000000000000e-02  0.0000000000000000e+00   2.9687500000000000e-01  1.5625000000000000e-02  0.0000000000000000e+00   3.1250000000000000e-01  1.5625000000000000e-02  0.0000000000000000e+00   3.2812500000000000e-01  1.5625000000000000e-02  0.0000000000000000e+00   3.4375000000000000e-01  1.5625000000000000e-02  0.0000000000000000e+00   3.5937500000000000e-01  1.5625000000000000e-02  0.0000000000000000e+00   3.7500000000000000e-01  1.5625000000000000e-02  0.0000000000000000e+00   3.9062500000000000e-01  1.5625000000000000e-02  0.0000000000000000e+00   4.0625000000000000e-01  1.5625000000000000e-02  0.0000000000000000e+00   4.2187500000000000e-01  1.5625000000000000e-02  0.0000000000000000e+00   4.3750000000000000e-01  1.5625000000000000e-02  0.0000000000000000e+00   4.5312500000000000e-01  1.5625000000000000e-02  0.0000000000000000e+00   4.6875000000000000e-01  1.5625000000000000e-02  0.0000000000000000e+00   4.8437500000000000e-01  1.5625000000000000e-02  0.0000000000000000e+00   5.0000000000000000e-01  1.5625000000000000e-02  0.0000000000000000e+00   5.1562500000000000e-01  1.5625000000000000e-02  0.0000000000000000e+00   5.3125000000000000e-01  1.5625000000000000e-02  0.0000000000000000e+00   5.4687500000000000e-01  1.5625000000000000e-02  0.0000000000000000e+00   5.6250000000000000e-01  1.5625000000000000e-02  0.0000000000000000e+00   5.7812500000000000e-01  1.5625000000000000e-02  0.0000000000000000e+00   5.9375000000000000e-01  1.5625000000000000e-02  0.0000000000000000e+00   6.0937500000000000e-01  1.5625000000000000e-02  0.0000000000000000e+00   6.2500000000000000e-01  1.5625000000000000e-02  0.0000000000000000e+00   6.4062500000000000e-01  1.5625000000000000e-02  0.0000000000000000e+00   6.5625000000000000e-01  1.5625000000000000e-02  0.0000000000000000e+00   6.7187500000000000e-01  1.5625000000000000e-02  0.0000000000000000e+00   6.8750000000000000e-01  1.5625000000000000e-02  0.0000000000000000e+00   7.0312500000000000e-01  1.5625000000000000e-02  0.0000000000000000e+00   7.1875000000000000e-01  1.5625000000000000e-02  0.0000000000000000e+00   7.3437500000000000e-01  1.5625000000000000e-02  0.0000000000000000e+00   7.5000000000000000e-01  1.5625000000000000e-02  0.0000000000000000e+00   7.6562500000000000e-01  1.5625000000000000e-02  0.0000000000000000e+00   7.8125000000000000e-01  1.5625000000000000e-02  0.0000000000000000e+00   7.9687500000000000e-01  1.5625000000000000e-02  0.0000000000000000e+00   8.1250000000000000e-01  1.5625000000000000e-02  0.0000000000000000e+00   8.2812500000000000e-01  1.5625000000000000e-02  0.0000000000000000e+00   8.4375000000000000e-01  1.5625000000000000e-02  0.0000000000000000e+00   8.5937500000000000e-01  1.5625000000000000e-02  0.0000000000000000e+00   8.7500000000000000e-01  1.5625000000000000e-02  0.0000000000000000e+00   8.9062500000000000e-01  1.5625000000000000e-02  0.0000000000000000e+00   9.0625000000000000e-01  1.5625000000000000e-02  0.0000000000000000e+00   9.2187500000000000e-01  1.5625000000000000e-02  0.0000000000000000e+00   9.3750000000000000e-01  1.5625000000000000e-02  0.0000000000000000e+00   9.5312500000000000e-01  1.5625000000000000e-02  0.0000000000000000e+00   9.6875000000000000e-01  1.5625000000000000e-02  0.0000000000000000e+00   9.8437500000000000e-01  1.5625000000000000e-02  0.0000000000000000e+00   1.0000000000000000e+00  1.5625000000000000e-02  0.0000000000000000e+00   0.0000000000000000e+00  3.1250000000000000e-02  0.0000000000000000e+00   1.5625000000000000e-02  3.1250000000000000e-02  0.0000000000000000e+00   3.1250000000000000e-02  3.1250000000000000e-02  0.0000000000000000e+00   4.6875000000000000e-02  3.1250000000000000e-02  0.0000000000000000e+00  
[...]
<PointData Scalars="scalars">
<DataArray type="Float64" Name="Solution Component 0 - ux" Format="ascii"> -2.6785111341221177e-05   2.6351096581762515e-06  -3.8294026944214005e-06  -1.3425444650279880e-06  -1.1391965306996746e-06  -4.5927529676806354e-07   2.8038775113198735e-08   4.7750762094203107e-07   8.4952976243407172e-07   1.1502150628052293e-06   1.3759643368313161e-06   1.5261838368067583e-06   1.6005030972455441e-06   1.5994192050993750e-06   1.5241726207300085e-06   1.3767712444939047e-06   1.1599701504635894e-06   8.7724833701759695e-07   5.3277553694586093e-07   1.3137128270874289e-07  -3.2154321304237485e-07  -8.1999965595645764e-07  -1.3575432000540108e-06  -1.9272979441257551e-06  -2.5220368461989492e-06  -3.1342554470243027e-06  -3.7562482572604522e-06  -4.3801873189288216e-06  -4.9982022822682692e-06  -5.6024607123945665e-06  -6.1852482265931305e-06  -6.7390477720606131e-06  -7.2566167319234090e-06  -7.7310615604378312e-06  -8.1559092905449714e-06  -8.5251746723669505e-06  -8.8334227756699905e-06  -9.0758264797157543e-06  -9.2482177910885985e-06  -9.3471329653443255e-06  -9.3698509888163131e-06  -9.3144246326630190e-06  -9.1797042060423268e-06  -8.9653537324863511e-06  -8.6718591106423831e-06  -8.3005285238194127e-06  -7.8534850250344154e-06  -7.3336512448835709e-06  -6.7447266099828693e-06  -6.0911572227449666e-06  -5.3780986866896575e-06  -4.6113725812760090e-06  -3.7974160679212942e-06  -2.9432281524250518e-06  -2.0563043423596557e-06  -1.1445783104736459e-06  -2.1638298478579316e-07   7.2006194471346465e-07   1.6534828834146285e-06   2.5899441344388399e-06   3.4380668188667289e-06   4.6243807336445756e-06   3.9470203198346656e-06   1.2056096459002284e-05  -1.0800037218516548e-05  -8.8738450657359358e-02  -8.8093647629404193e-02  -8.8301393356570196e-02  -8.9353950119641951e-02  -9.1234106284158872e-02  -9.3914687922337384e-02  -9.7361419041241876e-02  -1.0153278197297511e-01  -1.0638058369264558e-01  -1.1185037268346519e-01  -1.1788196542816919e-01  -1.2441001838507638e-01  -1.3136465648805115e-01  -1.3867214772600295e-01  -1.4625561757881692e-01  -1.5403579556506991e-01  -1.6193178622854662e-01  -1.6986185669120593e-01  -1.7774423284402627e-01  -1.8549789623008603e-01  -1.9304337372305905e-01  -2.0030351221687251e-01  -2.0720423071770336e-01  -2.1367524247524361e-01  -2.1965074010001215e-01  -2.2507003698303740e-01  -2.2987815877248272e-01  -2.3402637915421309e-01  -2.3747269472429222e-01  -2.4018223434114344e-01  -2.4212759898275427e-01  -2.4328912880389320e-01  -2.4365509480069958e-01  -2.4322181322003139e-01  -2.4199368159303539e-01  -2.3998313603719759e-01  -2.3721053023145455e-01  -2.3370393722011187e-01  -2.2949887595290236e-01  -2.2463796519367557e-01  -2.1917050812557187e-01  -2.1315201165370329e-01  -2.0664364503313540e-01  -1.9971164302848596e-01  -1.9242665934658201e-01  -1.8486307655571732e-01  -1.7709827911369197e-01  -1.6921189647329601e-01  -1.6128502350428880e-01  -1.5339942566538253e-01  -1.4563673647450495e-01  -1.3807765485153201e-01  -1.3080114984195801e-01  -1.2388368005864622e-01  -1.1739843488798248e-01  -1.1141460407893025e-01  -1.0599668170685897e-01  -1.0120380966229230e-01  -9.7089164549375814e-02  -9.3699390159906956e-02  -9.1074076416077815e-02  -8.9245272249762850e-02  -8.8237078775078234e-02  -8.8064841877150316e-02  -8.8736460640666065e-02  -1.7662963365972495e-01  -1.7533703647088666e-01  -1.7574091406950554e-01  -1.7782693413553005e-01  -1.8155799734061984e-01  -1.8688105564195656e-01  -1.9372825600021487e-01  -2.0201739220170889e-01  -2.1165282915579403e-01  -2.2252641578406693e-01  -2.3451853918143184e-01  -2.4749928083521383e-01  -2.6132967628854870e-01  -2.7586306434648150e-01  -2.9094651321950127e-01  -3.0642230922731351e-01  -3.2212949320001272e-01  -3.3790542924410077e-01  -3.5358739029928243e-01  -3.6901414481349298e-01  -3.8402752891484121e-01  -3.9847398864939537e-01  -4.1220607718874502e-01  -4.2508389238336186e-01  -4.3697644063998570e-01  -4.4776291384082106e-01  -4.5733386688279398e-01  -4.6559228438607536e-01  -4.7245452620966094e-01  -4.7785114259351580e-01  -4.8172755100860964e-01  -4.8404456814463248e-01  -4.8477879186999190e-01  -4.8392282944553938e-01  -4.8148536976781314e-01  -4.7749109892610164e-01  -4.7198045986601023e-01  -4.6500925846442026e-01  -4.5664811980333103e-01  -4.4698179987000142e-01  -4.3610835931015474e-01  -4.2413820718907136e-01  -4.1119302396140267e-01  -3.9740457401437856e-01  -3.8291341920526978e-01  -3.6786754575468050e-01  -3.5242091767977946e-01  -3.3673197063732957e-01  -3.2096206059034710e-01  -3.0527388210820727e-01  -2.8982987134627014e-01  -2.7479060882360284e-01  -2.6031323701369624e-01  -2.4654990747511304e-01  -2.3364627176887676e-01  -2.2174002971433371e-01  -2.1095954762196459e-01  -2.0142255800505132e-01  -1.9323495096178311e-01  -1.8648966591171473e-01  -1.8126569150053279e-01  -1.7762717851402454e-01  -1.7562267427211975e-01  -1.7528442011722928e-01  -1.7662934516999812e-01  -2.6281584287947379e-01  -2.6087560056302139e-01  -2.6145672589679936e-01  -2.6453850478460639e-01  -2.7006603335236645e-01  -2.7796104962122586e-01  -2.8812308113580759e-01  -3.0043031508305534e-01  -3.1474084876359298e-01  -3.3089408579219626e-01  -3.4871231300137501e-01  -3.6800243623215706e-01  -3.8855786447874341e-01  -4.1016052500016492e-01  -4.3258299059885907e-01  -4.5559069844783923e-01  -4.7894423877497361e-01  -5.0240169093883680e-01  -5.2572098396301115e-01  -5.4866225838232252e-01  -5.7099020627655706e-01  -5.9247636662011260e-01  -6.1290135354742914e-01  -6.3205699581373331e-01  -6.4974836662292856e-01  -6.6579568408082990e-01  -6.8003606379936743e-01  -6.9232510662922842e-01  -7.0253830610728740e-01  -7.1057226195394874e-01  -7.1634568784514763e-01  -7.1980020367977049e-01  -7.2090090464561429e-01  -7.1963670155404691e-01  -7.1602042912670449e-01  -7.1008872115562072e-01  -7.0190165371703683e-01  -6.9154215985943435e-01  -6.7911522138752378e-01  -6.6474684551973240e-01  -6.4858283627044611e-01  -6.3078737238168481e-01  -6.1154140549401814e-01  -5.9104089397230619e-01  -5.6949488937379378e-01  -5.4712349395488058e-01  -5.2415570883541862e-01  -5.0082719346566829e-01  -4.7737795786052051e-01  -4.5405000966427833e-01  -4.3108497848145827e-01  -4.0872174004259682e-01  -3.8719406266401796e-01  -3.6672829810504759e-01  -3.4754113831294736e-01  -3.2983745868236974e-01  -3.1380826735256129e-01  -2.9962877872064758e-01  -2.8745662779603892e-01  -2.7743024018326701e-01  -2.6966737017072756e-01  -2.6426381468973942e-01  -2.6129230138413390e-01  -2.6080152833130982e-01  -2.6281407459747957e-01  -3.4647126467136014e-01  -3.4387678826571116e-01  -3.4460499974891984e-01  -3.4862764599335799e-01  -3.5587255712865051e-01  -3.6623726976460907e-01  -3.7958989442794050e-01  -3.9577038597138758e-01  -4.1459214356409063e-01  -4.3584385670489467e-01  -4.5929158965309713e-01  -4.8468107934555243e-01  -5.1174022750503745e-01  -5.4018176393237849e-01  -5.6970605607714175e-01  -6.0000403800136548e-01  -6.3076023042468787e-01  -6.6165582249467370e-01  -6.9237178525856258e-01  -7.2259198648149758e-01  -7.5200627645082152e-01  -7.8031351470696841e-01  -8.0722450823450009e-01  -8.3246483253326242e-01  -8.5577750814835651e-01  -8.7692550665357738e-01  -8.9569406175712518e-01  -9.1189276310037815e-01  -9.2535741243029856e-01  -9.3595162414090594e-01  -9.4356815466012312e-01  -9.4812994778086623e-01  -9.4959088579254158e-01  -9.4793623911647273e-01  -9.4318281005937588e-01  -9.3537876926218377e-01  -9.2460318639072980e-01  -9.1096525956305552e-01  -8.9460325092183446e-01  -8.7568313859522329e-01  -8.5439699802041169e-01  -8.3096112821589962e-01  -8.0561394104256334e-01  -7.7861363376902304e-01  -7.5023566733767799e-01  -7.2077007458451126e-01  -6.9051862428312416e-01  -6.5979186824581704e-01  -6.2890609980352674e-01  -5.9818025279337350e-01  -5.6793277069320935e-01  -5.3847847575121977e-01  -5.1012546786427804e-01  -4.8317208255091926e-01  -4.5790393665342949e-01  -4.3459108939896957e-01  -4.1348534514927227e-01  -3.9481772259137421e-01  -3.7879611325409041e-01  -3.6560314994066018e-01  -3.5539430263344213e-01  -3.4829621454113030e-01  -3.4440528227071410e-01  -3.4378651273249694e-01  -3.4646926514489962e-01  -4.2679025653112396e-01  -4.2353397074213239e-01  -4.2436910896081259e-01  -4.2926044808644526e-01  -4.3811951540510596e-01  -4.5082065447055913e-01  -4.6720197144026127e-01  -4.8706687687297284e-01  -5.1018602714330008e-01  -5.3629959101676861e-01  -5.6511981543021927e-01  -5.9633385959490792e-01  -6.2960686956459877e-01  -6.6458526368847481e-01  -7.0090019761923417e-01  -7.3817117563387491e-01  -7.7600977343995803e-01  -8.1402343642612929e-01  -8.5181931650056719e-01  -8.8900811024668291e-01  -9.2520786109853459e-01  -9.6004768858520162e-01  -9.9317140841456431e-01  -1.0242410082404483e+00  -1.0529399453666497e+00  -1.0789762343866149e+00  -1.1020852948064359e+00  -1.1220325310291190e+00  -1.1386156196845925e+00  -1.1516664821304408e+00  -1.1610529229947770e+00  -1.1666799188739665e+00  -1.1684905446846936e+00  -1.1664665286698526e+00  -1.1606284306548411e+00  -1.1510354417922988e+00  -1.1377848076855577e+00  -1.1210108804239749e+00  -1.1008838086454369e+00  -1.0776078782304419e+00  -1.0514195196059253e+00  -1.0225850008495521e+00  -9.9139782880844152e-01  -9.5817588325737102e-01  -9.2325831168407868e-01  -8.8700221458160822e-01  -8.4977915312821872e-01  -8.1197151282037794e-01  -7.7396875798021425e-01  -7.3616361306723765e-01  -6.9894820737612018e-01  -6.6271021999416235e-01  -6.2782906181120968e-01  -5.9467213092916160e-01  -5.6359117701575834e-01  -5.3491880898235311e-01  -5.0896517885666970e-01  -4.8601487286699169e-01  -4.6632403849760051e-01  -4.5011777350300369e-01  -4.3758779928644831e-01  -4.2889043602044541e-01  -4.2414488883155810e-01  -4.2343191863686774e-01  -4.2678725430044279e-01  -5.0299906771683178e-01  -4.9907187379163515e-01  -4.9996514443255707e-01  -5.0563711488162455e-01  -5.1598413669334287e-01  -5.3085872024187608e-01  -5.5007065892331997e-01  -5.7338884865280770e-01  -6.0054355458111486e-01  -6.3122907250391092e-01  -6.6510674754763677e-01  -7.0180831358367479e-01  -7.4093951831191729e-01  -7.8208399786171212e-01  -8.2480736317595682e-01  -8.6866145862804045e-01  -9.1318875168760461e-01  -9.5792681114220224e-01  -1.0024128304820545e+00  -1.0461881525861729e+00  -1.0888027518145069e+00  -1.1298196300217604e+00  -1.1688190838462107e+00  -1.2054028018769498e+00  -1.2391977519658925e+00  -1.2698598209946015e+00  -1.2970771718075762e+00  -1.3205732847766898e+00  -1.3401096545219555e+00  -1.3554881156511784e+00  -1.3665527749812674e+00  -1.3731915315140397e+00  -1.3753371694228271e+00  -1.3729680134421967e+00  -1.3661081402837252e+00  -1.3548271439867348e+00  -1.3392394574279223e+00  -1.3195032365001202e+00  -1.2958188176889811e+00  -1.2684267638978366e+00  -1.2376055173424609e+00  -1.2036686821236364e+00  -1.1669619626561749e+00  -1.1278597874450429e+00  -1.0867616507237123e+00  -1.0440882071786033e+00  -1.0002771573463127e+00  -9.5577896326767897e-01  -9.1105243559072036e-01  -8.6656023451906927e-01  -8.2276432779532849e-01  -7.8012144927299276e-01  -7.3907860157013294e-01  -7.0006864581704820e-01  -6.6350602059960839e-01  -6.2978263087800213e-01  -5.9926394593243948e-01  -5.7228534322694335e-01  -5.4914873246667706e-01  -5.3011949096091171e-01  -5.1542373750592796e-01  -5.0524596718349457e-01  -4.9972706242273834e-01  -4.9896279305857416e-01  -5.0299499781783563e-01  -5.7436386651916616e-01  -5.6975547130522519e-01  -5.7064992265151526e-01  -5.7699952081976191e-01  -5.8868666355374077e-01  -6.0554362092854308e-01  -6.2735385731117388e-01  -6.5385412144654675e-01  -6.8473702728607833e-01  -7.1965408506318995e-01  -7.5821914242637400e-01  -8.0001219474284391e-01  -8.4458352373281731e-01  -8.9145812233381327e-01  -9.4014036203086904e-01  -9.9011885706929104e-01  -1.0408714782896478e+00  -1.0918704679624591e+00  -1.1425876060458580e+00  -1.1924993777892539e+00  -1.2410920925937639e+00  -1.2878669045121949e+00  -1.3323446857217398e+00  -1.3740707057366366e+00  -1.4126190710166844e+00  -1.4475968819494294e+00  -1.4786480669331041e+00  -1.5054568564198838e+00  -1.5277508632631336e+00  -1.5453037395324543e+00  -1.5579373840611062e+00  -1.5655236793325540e+00  -1.5679857408718822e+00  -1.5652986670217239e+00  -1.5574897818070743e+00  -1.5446383684975142e+00  -1.5268748963954004e+00  -1.5043797482694803e+00  -1.4773814606793056e+00  -1.4461544941371618e+00  -1.4110165545887339e+00  -1.3723254920242034e+00  -1.3304758061073370e+00  -1.2858947924955284e+00  -1.2390383669832927e+00  -1.1903866076982819e+00  -1.1404390582861237e+00  -1.0897098373079284e+00  -1.0387226009218311e+00  -9.8800540731324082e-01  -9.3808553225509028e-01  -8.8948428561799830e-01  -8.4271187861012686e-01  -7.9826239099452723e-01  -7.5660888652359126e-01  -7.1819872335318991e-01  -6.8344910423909666e-01  -6.5274290888511588e-01  -6.2642484788567143e-01  -6.0479797422485770e-01  -5.8812058423033364e-01  -5.7660353528418418e-01  -5.7040800105161416e-01  -5.6964381224933380e-01  -5.7435847878305901e-01  -6.4019733009198176e-01  -6.3489656369429959e-01  -6.3572789134351071e-01  -6.4263834103162709e-01  -6.5549770777754635e-01  -6.7411982665752557e-01  -6.9826408942211993e-01  -7.2763779051756705e-01  -7.6189900489618334e-01  -8.0065996285038310e-01  -8.4349088104426673e-01  -8.8992420617949974e-01  -9.3945922603086096e-01  -9.9156700067506909e-01  -1.0456955647442563e+00  -1.1012753495639358e+00  -1.1577247722719302e+00  -1.2144559375875483e+00  -1.2708803968994444e+00  -1.3264149088341515e+00  -1.3804871454758703e+00  -1.4325412889418974e+00  -1.4820434640932576e+00  -1.5284869547545954e+00  -1.5713971529145876e+00  -1.6103361929752937e+00  -1.6449072261735418e+00  -1.6747582937790289e+00  -1.6995857615666035e+00  -1.7191372823081039e+00  -1.7332142575913092e+00  -1.7416737751233662e+00  -1.7444300027485660e+00  -1.7414550256580719e+00  -1.7327791186565875e+00  -1.7184904508098120e+00  -1.6987342252766287e+00  -1.6737112625898389e+00  -1.6436760410232099e+00  -1.6089342129219446e+00  -1.5698396209345378e+00  -1.5267908429087900e+00  -1.4802272987605769e+00  -1.4306249568482254e+00  -1.3784916812436954e+00  -1.3243622647506905e+00  -1.2687931955418652e+00  -1.2123572078452647e+00  -1.1556376691830341e+00  -1.0992228582243957e+00  -1.0437001883523440e+00  -9.8965043255294360e-01  -9.3764200519927055e-01  -8.8822535573063377e-01  -8.4192752812750193e-01  -7.9924693844246686e-01  -7.6064842048867187e-01  -7.2655858711409704e-01  -6.9736155128506849e-01  -6.7339504748855639e-01  -6.5494698977939325e-01  -6.4225249830452447e-01  -6.3549141965869693e-01  -6.3478652103158251e-01  -6.4019045477418302e-01  -6.9986545306226033e-01  -6.9386053576008255e-01  -6.9455784532346265e-01  -7.0189986036145069e-01  -7.1574523988496563e-01  -7.3589137608024213e-01  -7.6207609080576844e-01  -7.9398021647749628e-01  -8.3123074732338087e-01  -8.7340452841797045e-01  -9.2003244110530991e-01  -9.7060403925981431e-01  -1.0245725877291747e+00  -1.0813604515784581e+00  -1.1403647822838761e+00  -1.2009634447944317e+00  -1.2625211274626216e+00  -1.3243955753234846e+00  -1.3859438861589284e+00  -1.4465288082627450e+00  -1.5055249788500840e+00  -1.5623250426643973e+00  -1.6163455915141116e+00  -1.6670328672121104e+00  -1.7138681726967084e+00  -1.7563729389450355e+00  -1.7941133986208921e+00  -1.8267048212154271e+00  -1.8538152686852056e+00  -1.8751688352276692e+00  -1.8905483398312699e+00  -1.8997974455303450e+00  -1.9028221848334383e+00  -1.8995918765399016e+00  -1.8901394250415489e+00  -1.8745609991695824e+00  -1.8530150936458427e+00  -1.8257209821607832e+00  -1.7929565769741227e+00  -1.7550557156678885e+00  -1.7124049012116018e+00  -1.6654395267759825e+00  -1.6146396217052132e+00  -1.5605251596770513e+00  -1.5036509743041502e+00  -1.4446013312141146e+00  -1.3839842089555832e+00  -1.3224253438848843e+00  -1.2605620964565183e+00  -1.1990371980565782e+00  -1.1384924386680624e+00  -1.0795623562166217e+00  -1.0228679884209790e+00  -9.6901074736593285e-01  -9.1856647581466766e-01  -8.7207974250408371e-01  -8.3005843133380641e-01  -7.9296867646165825e-01  -7.6123019189401686e-01  -7.3521204024753750e-01  -7.1522888102437010e-01  -7.0153773422139432e-01  -6.9433528829159186e-01  -6.9375596107367077e-01  -6.9985692797279442e-01  -7.5279359169886562e-01  -7.4607242515950400e-01  -7.4655908196924814e-01  -7.5419226165835018e-01  -7.6882106344046197e-01  -7.9022859567968684e-01  -8.1813383335353429e-01  -8.5219440857202966e-01  -8.9201000673885389e-01  -9.3712633615844676e-01  -9.8703962883135421e-01  -1.0412016251393648e+00  -1.0990249910386118e+00  -1.1598891129228668e+00  -1.2231462123525878e+00  -1.2881277202976620e+00  -1.3541508484246489e+00  -1.4205252933280732e+00  -1.4865600084981689e+00  -1.5515699782718797e+00  -1.6148829280727406e+00  -1.6758459059093467e+00  -1.7338316713731849e+00  -1.7882448302661180e+00  -1.8385276554641778e+00  -1.8841655376649384e+00  -1.9246920132606253e+00  -1.9596933206758644e+00  -1.9888124410686450e+00  -2.0117525842892583e+00  -2.0282800863584178e+00  -2.0382266904122068e+00  -2.0414911890281120e+00  -2.0380404120194426e+00  -2.0279095501077720e+00  -2.0112018113051002e+00  -1.9880874132842954e+00  -1.9588019214290679e+00  -1.9236439485781012e+00  -1.8829722386424323e+00  -1.8372021622249710e+00  -1.7868016580502022e+00  -1.7322866593624022e+00  -1.6742160494243994e+00  -1.6131861947940707e+00  -1.5498251091306638e+00  -1.4847863038521207e+00  -1.4187423849845733e+00  -1.3523784579944294e+00  -1.2863854042518112e+00  -1.2214530940104615e+00  -1.1582636014037144e+00  -1.0974844869450868e+00  -1.0397622123682633e+00  -9.8571575136518652e-01  -9.3593045789394147e-01  -8.9095225122717092e-01  -8.5128217383736615e-01  -8.1737137460230713e-01  -7.8961656570037031e-01  -7.6835599706852697e-01  -7.5386598762258017e-01  -7.4635804506623316e-01  -7.4597680856128701e-01  -7.5278328286528873e-01  -7.9847201610190610e-01  -7.9102247512803481e-01  -7.9121700750072932e-01  -7.9899134611625677e-01  -8.1418670319324749e-01  -8.3657420835602492e-01  -8.6585690565207585e-01  -9.0167272547930588e-01  -9.4359809330742672e-01  -9.9115214253959061e-01  -1.0438014881826660e+00  -1.1009655124161162e+00  -1.1620221084136952e+00  -1.2263138247539036e+00  -1.2931543493453102e+00  -1.3618352689277131e+00  -1.4316330378911784e+00  -1.5018160883897438e+00  -1.5716520125409859e+00  -1.6404147469399635e+00  -1.7073916897832442e+00  -1.7718906816058571e+00  -1.8332467820010152e+00  -1.8908287766954428e+00  -1.9440453519761842e+00  -1.9923508767034646e+00  -2.0352507359505636e+00  -2.0723061646503718e+00  -2.1031385344754558e+00  -2.1274330524695837e+00  -2.1449418356343486e+00  -2.1554863317151329e+00  -2.1589590627517028e+00  -2.1553246745017671e+00  -2.1446202815591748e+00  -2.1269551047943223e+00  -2.1025094045804229e+00  -2.0715327200763429e+00  -2.0343414315404558e+00  -1.9913156691895495e+00  -1.9428955984305432e+00  -1.8895771173163651e+00  -1.8319070077566000e+00  -1.7704775872897451e+00  -1.7059209130483084e+00  -1.6389025938778423e+00  -1.5701152703556536e+00  -1.5002718256653549e+00  -1.4300983928921167e+00  -1.3603272262721109e+00  -1.2916895052514130e+00  -1.2249081408743332e+00  -1.1606906540056885e+00  -1.0997221942113338e+00  -1.0426587667836684e+00  -9.9012073339785933e-01  -9.4268664925766354e-01  -9.0088749636624932e-01  -8.6520136876102893e-01  -8.3604866126438337e-01  -8.1378780861880406e-01  -7.9871161695918058e-01  -7.9104422155920995e-01  -7.9093892794343945e-01  -7.9845981360825002e-01  -8.3646081405378858e-01  -8.2827104989103595e-01  -8.2808811137957916e-01  -8.3584561313109307e-01  -8.5137863604520925e-01  -8.7444876039188313e-01  -9.0474617966860649e-01  -9.4189282352432357e-01  -9.8544614381219797e-01  -1.0349035303100309e+00  -1.0897073116647555e+00  -1.1492502912098035e+00  -1.2128817621493213e+00  -1.2799139421725221e+00  -1.3496287637940114e+00  -1.4212849535845460e