<VTKFile type="UnstructuredGrid" version="0.1" byte_order="LittleEndian">
<UnstructuredGrid>
<Piece NumberOfPoints="1089" NumberOfCells="2048">
<Points>
<DataArray type="Float64" NumberOfComponents="3" Format="ascii">  0.0000000000000000e+00  0.0000000000000000e+00  0.0000000000000000e+00   3.1250000000000000e-02  0.0000000000000000e+00  0.0000000000000000e+00   6.2500000000000000e-02  0.0000000000000000e+00  0.0000000000000000e+00   9.3750000000000000e-02  0.0000000000000000e+00  0.0000000000000000e+00   1.2500000000000000e-01  0.0000000000000000e+00  0.0000000000000000e+00   1.5625000000000000e-01  0.0000000000000000e+00  0.0000000000000000e+00   1.8750000000000000e-01  0.0000000000000000e+00  0.0000000000000000e+00   2.1875000000000000e-01  0.0000000000000000e+00  0.0000000000000000e+00   2.5000000000000000e-01  0.0000000000000000e+00  0.0000000000000000e+00   2.8125000000000000e-01  0.0000000000000000e+00  0.0000000000000000e+00   3.1250000000000000e-01  0.0000000000000000e+00  0.0000000000000000e+00   3.4375000000000000e-01  0.0000000000000000e+00  0.0000000000000000e+00   3.7500000000000000e-01  0.0000000000000000e+00  0.0000000000000000e+00   4.0625000000000000e-01  0.0000000000000000e+00  0.0000000000000000e+00   4.3750000000000000e-01  0.0000000000000000e+00  0.0000000000000000e+00   4.6875000000000000e-01  0.0000000000000000e+00  0.0000000000000000e+00   5.0000000000000000e-01  0.0000000000000000e+00  0.0000000000000000e+00   5.3125000000000000e-01  0.0000000000000000e+00  0.0000000000000000e+00   5.6250000000000000e-01  0.0000000000000000e+00  0.0000000000000000e+00   5.9375000000000000e-01  0.0000000000000000e+00  0.0000000000000000e+00   6.2500000000000000e-01  0.0000000000000000e+00  0.0000000000000000e+00   6.5625000000000000e-01  0.0000000000000000e+00  0.0000000000000000e+00   6.8750000000000000e-01  0.0000000000000000e+00  0.0000000000000000e+00   7.1875000000000000e-01  0.0000000000000000e+00  0.0000000000000000e+00   7.5000000000000000e-01  0.0000000000000000e+00  0.0000000000000000e+00   7.8125000000000000e-01  0.0000000000000000e+00  0.0000000000000000e+00   8.1250000000000000e-01  0.0000000000000000e+00  0.0000000000000000e+00   8.4375000000000000e-01  0.0000000000000000e+00  0.0000000000000000e+00   8.7500000000000000e-01  0.0000000000000000e+00  0.0000000000000000e+00   9.0625000000000000e-01  0.0000000000000000e+00  0.0000000000000000e+00   9.3750000000000000e-01  0.0000000000000000e+00  0.0000000000000000e+00   9.6875000000000000e-01  0.0000000000000000e+00  0.0000000000000000e+00   1.0000000000000000e+00  0.0000000000000000e+00  0.0000000000000000e+00   0.0000000000000000e+00  3.1250000000000000e-02  0.0000000000000000e+00   3.1250000000000000e-02  3.1250000000000000e-02  0.0000000000000000e+00   6.2500000000000000e-02  3.1250000000000000e-02  0.0000000000000000e+00   9.3750000000000000e-02  3.1250000000000000e-02  0.0000000000000000e+00   1.2500000000000000e-01  3.1250000000000000e-02  0.0000000000000000e+00   1.5625000000000000e-01  3.1250000000000000e-02  0.0000000000000000e+00   1.8750000000000000e-01  3.1250000000000000e-02  0.0000000000000000e+00   2.1875000000000000e-01  3.1250000000000000e-02  0.0000000000000000e+00   2.5000000000000000e-01  3.1250000000000000e-02  0.0000000000000000e+00   2.8125000000000000e-01  3.1250000000000000e-02  0.0000000000000000e+00   3.1250000000000000e-01  3.1250000000000000e-02  0.0000000000000000e+00   3.4375000000000000e-01  3.1250000000000000e-02  0.0000000000000000e+00   3.7500000000000000e-01  3.1250000000000000e-02  0.0000000000000000e+00   4.0625000000000000e-01  3.1250000000000000e-02  0.0000000000000000e+00   4.3750000000000000e-01  3.1250000000000000e-02  0.0000000000000000e+00   4.6875000000000000e-01  3.1250000000000000e-02  0.0000000000000000e+00   5.0000000000000000e-01  3.1250000000000000e-02  0.0000000000000000e+00   5.3125000000000000e-01  3.1250000000000000e-02  0.0000000000000000e+00   5.6250000000000000e-01  3.1250000000000000e-02  0.0000000000000000e+00   5.9375000000000000e-01  3.1250000000000000e-02  0.0000000000000000e+00   6.2500000000000000e-01  3.1250000000000000e-02  0.0000000000000000e+00   6.5625000000000000e-01  3.1250000000000000e-02  0.0000000000000000e+00   6.8750000000000000e-01  3.1250000000000000e-02  0.0000000000000000e+00   7.1875000000000000e-01  3.1250000000000000e-02  0.0000000000000000e+00   7.5000000000000000e-01  3.1250000000000000e-02  0.0000000000000000e+00   7.8125000000000000e-01  3.1250000000000000e-02  0.0000000000000000e+00   8.1250000000000000e-01  3.1250000000000000e-02  0.0000000000000000e+00   8.4375000000000000e-01  3.1250000000000000e-02  0.0000000000000000e+00   8.7500000000000000e-01  3.1250000000000000e-02  0.0000000000000000e+00   9.0625000000000000e-01  3.1250000000000000e-02  0.0000000000000000e+00   9.3750000000000000e-01  3.1250000000000000e-02  0.0000000000000000e+00   9.6875000000000000e-01  3.1250000000000000e-02  0.0000000000000000e+00   1.0000000000000000e+00  3.1250000000000000e-02  0.0000000000000000e+00   0.0000000000000000e+00  6.2500000000000000e-02  0.0000000000000000e+00   3.1250000000000000e-02  6.2500000000000000e-02  0.0000000000000000e+00   6.2500000000000000e-02  6.2500000000000000e-02  0.0000000000000000e+00   9.3750000000000000e-02  6.2500000000000000e-02  0.0000000000000000e+00   1.2500000000000000e-01  6.2500000000000000e-02  0.0000000000000000e+00   1.5625000000000000e-01  6.2500000000000000e-02  0.0000000000000000e+00   1.8750000000000000e-01  6.2500000000000000e-02  0.0000000000000000e+00   2.1875000000000000e-01  6.2500000000000000e-02  0.0000000000000000e+00   2.5000000000000000e-01  6.2500000000000000e-02  0.0000000000000000e+00   2.8125000000000000e-01  6.2500000000000000e-02  0.0000000000000000e+00   3.1250000000000000e-01  6.2500000000000000e-02  0.0000000000000000e+00   3.4375000000000000e-01  6.2500000000000000e-02  0.0000000000000000e+00   3.7500000000000000e-01  6.2500000000000000e-02  0.0000000000000000e+00   4.0625000000000000e-01  6.2500000000000000e-02  0.0000000000000000e+00   4.3750000000000000e-01  6.2500000000000000e-02  0.0000000000000000e+00   4.6875000000000000e-01  6.2500000000000000e-02  0.0000000000000000e+00   5.0000000000000000e-01  6.2500000000000000e-02  0.0000000000000000e+00   5.3125000000000000e-01  6.2500000000000000e-02  0.0000000000000000e+00   5.6250000000000000e-01  6.2500000000000000e-02  0.0000000000000000e+00   5.9375000000000000e-01  6.2500000000000000e-02  0.0000000000000000e+00   6.2500000000000000e-01  6.2500000000000000e-02  0.0000000000000000e+00   6.5625000000000000e-01  6.2500000000000000e-02  0.0000000000000000e+00   6.8750000000000000e-01  6.2500000000000000e-02  0.0000000000000000e+00   7.1875000000000000e-01  6.2500000000000000e-02  0.0000000000000000e+00   7.5000000000000000e-01  6.2500000000000000e-02  0.0000000000000000e+00   7.8125000000000000e-01  6.2500000000000000e-02  0.0000000000000000e+00   8.1250000000000000e-01  6.2500000000000000e-02  0.0000000000000000e+00   8.4375000000000000e-01  6.2500000000000000e-02  0.0000000000000000e+00   8.7500000000000000e-01  6.2500000000000000e-02  0.0000000000000000e+00   9.0625000000000000e-01  6.2500000000000000e-02  0.0000000000000000e+00   9.3750000000000000e-01  6.2500000000000000e-02  0.0000000000000000e+00   9.6875000000000000e-01  6.2500000000000000e-02  0.0000000000000000e+00   1.0000000000000000e+00  6.2500000000000000e-02  0.0000000000000000e+00   0.0000000000000000e+00  9.3750000000000000e-02  0.0000000000000000e+00   3.1250000000000000e-02  9.3750000000000000e-02  0.0000000000000000e+00   6.2500000000000000e-02  9.3750000000000000e-02  0.0000000000000000e+00   9.3750000000000000e-02  9.3750000000000000e-02  0.0000000000000000e+00   1.2500000000000000e-01  9.3750000000000000e-02  0.0000000000000000e+00   1.5625000000000000e-01  9.3750000000000000e-02  0.0000000000000000e+00   1.8750000000000000e-01  9.3750000000000000e-02  0.0000000000000000e+00   2.1875000000000000e-01  9.3750000000000000e-02  0.0000000000000000e+00   2.5000000000000000e-01  9.3750000000000000e-02  0.0000000000000000e+00   2.8125000000000000e-01  9.3750000000000000e-02  0.0000000000000000e+00   3.1250000000000000e-01  9.3750000000000000e-02  0.0000000000000000e+00   3.4375000000000000e-01  9.3750000000000000e-02  0.0000000000000000e+00   3.7500000000000000e-01  9.3750000000000000e-02  0.0000000000000000e+00   4.0625000000000000e-01  9.3750000000000000e-02  0.0000000000000000e+00   4.3750000000000000e-01  9.3750000000000000e-02  0.0000000000000000e+00   4.6875000000000000e-01  9.3750000000000000e-02  0.0000000000000000e+00   5.0000000000000000e-01  9.3750000000000000e-02  0.0000000000000000e+00   5.3125000000000000e-01  9.3750000000000000e-02  0.0000000000000000e+00   5.6250000000000000e-01  9.3750000000000000e-02  0.0000000000000000e+00   5.9375000000000000e-01  9.3750000000000000e-02  0.0000000000000000e+00   6.2500000000000000e-01  9.3750000000000000e-02  0.0000000000000000e+00   6.5625000000000000e-01  9.3750000000000000e-02  0.0000000000000000e+00   6.8750000000000000e-01  9.3750000000000000e-02  0.0000000000000000e+00   7.1875000000000000e-01  9.3750000000000000e-02  0.0000000000000000e+00   7.5000000000000000e-01  9.3750000000000000e-02  0.0000000000000000e+00   7.8125000000000000e-01  9.3750000000000000e-02  0.0000000000000000e+00   8.1250000000000000e-01  9.3750000000000000e-02  0.0000000000000000e+00   8.4375000000000000e-01  9.3750000000000000e-02  0.0000000000000000e+00   8.7500000000000000e-01  9.3750000000000000e-02  0.0000000000000000e+00   9.0625000000000000e-01  9.3750000000000000e-02  0.0000000000000000e+00   9.3750000000000000e-01  9.3750000000000000e-02  0.0000000000000000e+00   9.6875000000000000e-01  9.3750000000000000e-02  0.0000000000000000e+00   1.0000000000000000e+00  9.3750000000000000e-02  0.0000000000000000e+00   0.0000000000000000e+00  1.2500000000000000e-01  0.0000000000000000e+00   3.1250000000000000e-02  1.2500000000000000e-01  0.0000000000000000e+00  
[...]
<PointData Scalars="scalars">
<DataArray type="Float64" Name="Solution Component 0 - ux" Format="ascii"> -9.4864851841747156e-05   1.8303990926625830e-05  -3.2238752874129972e-06   4.9057491006424416e-06   4.0317828999184150e-06   3.2190769568415891e-06   4.9408658296131557e-07  -3.5337414630776889e-06  -8.7703129604479730e-06  -1.4949142690207152e-05  -2.1791588083545774e-05  -2.8984824947259113e-05  -3.6200755408531388e-05  -4.3107625027029779e-05  -4.9383542370158501e-05  -5.4729401931338619e-05  -5.8881075879376175e-05  -6.1620250511785330e-05  -6.2783550442431420e-05  -6.2269604174007708e-05  -6.0043715494141901e-05  -5.6140035495972773e-05  -5.0661192326419095e-05  -4.3775086823901381e-05  -3.5710951747233964e-05  -2.6743896159489503e-05  -1.7227914115566932e-05  -7.3684934465121500e-06   1.7180309641119216e-06   1.3185173650816083e-05   1.0224513719260848e-05   6.6925200632838617e-05  -8.0404283299626933e-05  -1.7685118165188896e-01  -1.7621361324337187e-01  -1.8228341464774334e-01  -1.9469388115402333e-01  -2.1282326376724728e-01  -2.3583433607405571e-01  -2.6271720482840916e-01  -2.9232453800305092e-01  -3.2341533033155556e-01  -3.5470193116980153e-01  -3.8489942035120867e-01  -4.1277508507251920e-01  -4.3719604871599871e-01  -4.5717312928443787e-01  -4.7189918740251996e-01  -4.8078044834591455e-01  -4.8345956458119094e-01  -4.7982951174477284e-01  -4.7003776918373569e-01  -4.5448061267564688e-01  -4.3378772982984848e-01  -4.0879774057688173e-01  -3.8052555200680377e-01  -3.5012278592614027e-01  -3.1883277310728542e-01  -2.8794179831809125e-01  -2.5872839328163999e-01  -2.3241248978946061e-01  -2.1010618357399763e-01  -1.9276748488290607e-01  -1.8115877666206170e-01  -1.7580601707698698e-01  -1.7698039063211340e-01  -3.4702982969373453e-01  -3.4558376603862745e-01  -3.5725001776029158e-01  -3.8132878979213147e-01  -4.1661120190288109e-01  -4.6147732116472434e-01  -5.1396061512842217e-01  -5.7182136339442458e-01  -6.3263265905872479e-01  -6.9387352440922478e-01  -7.5302612415440717e-01  -8.0767308836460139e-01  -8.5559112555808048e-01  -8.9483722114738717e-01  -9.2382403174659056e-01  -9.4138151620207411e-01  -9.4680238932821958e-01  -9.3986961756175291e-01  -9.2086487367617320e-01  -8.9055760603982237e-01  -8.5017512593932010e-01  -8.0135484557981096e-01  -7.4608048264680116e-01  -6.8660465524360659e-01  -6.2536079907083542e-01  -5.6486772477744696e-01  -5.0763037721069504e-01  -4.5604044370866303e-01  -4.1228037324499328e-01  -3.7823408024454103e-01  -3.5540709476638138e-01  -3.4485767656246741e-01  -3.4714743437403389e-01  -5.0384340432004504e-01  -5.0136775844489323e-01  -5.1786612161977308e-01  -5.5234801532466249e-01  -6.0308571282414269e-01  -6.6775274960619690e-01  -7.4351329002765820e-01  -8.2713054582063439e-01  -9.1509185798764625e-01  -1.0037445843543837e+00  -1.0894376377479991e+00  -1.1686630999884484e+00  -1.2381923813772604e+00  -1.2952015995425188e+00  -1.3373812804037861e+00  -1.3630261007575926e+00  -1.3711011724783178e+00  -1.3612822803889477e+00  -1.3339684965514818e+00  -1.2902666616881431e+00  -1.2319483087928211e+00  -1.1613806643633215e+00  -1.0814343558061692e+00  -9.9537134106497649e-01  -9.0671732333039778e-01  -8.1912348833562709e-01  -7.3622278054456458e-01  -6.6148609818458515e-01  -5.9808372371592589e-01  -5.4875700031802799e-01  -5.1570467701481992e-01  -5.0048750212597581e-01  -5.0393929660221881e-01  -6.4129972506951838e-01  -6.3745923529856552e-01  -6.5772008172181406e-01  -7.0084424991328620e-01  -7.6466074597757328e-01  -8.4623525560872115e-01  -9.4198044617860943e-01  -1.0477944009394644e+00  -1.1592199266228382e+00  -1.2716178441849464e+00  -1.3803474364148463e+00  -1.4809469671490694e+00  -1.5693072399964731e+00  -1.6418314400435650e+00  -1.6955750425509037e+00  -1.7283603499323399e+00  -1.7388612038337012e+00  -1.7266545761759842e+00  -1.6922370243358711e+00  -1.6370053519763570e+00  -1.5632021976350770e+00  -1.4738286226585862e+00  -1.3725270369557214e+00  -1.2634389364782770e+00  -1.1510428850927581e+00  -1.0399789188924320e+00  -9.3486605244394694e-01  -8.4011980373614448e-01  -7.5977661642023697e-01  -6.9733173511804269e-01  -6.5559647365625484e-01  -6.3658033190557295e-01  -6.4137049090814136e-01  -7.5411302615647535e-01  -7.4851846278918088e-01  -7.7122115301602223e-01  -8.2079508247331034e-01  -8.9471950994322968e-01  -9.8957242617950725e-01  -1.1011601370687885e+00  -1.2246798610172749e+00  -1.3549069476187825e+00  -1.4863987284210776e+00  -1.6137068514990596e+00  -1.7315897456873321e+00  -1.8352169305271409e+00  -1.9203572312617383e+00  -1.9835435944990643e+00  -2.0222081110849737e+00  -2.0347820091411108e+00  -2.0207567358187339e+00  -1.9807037493991506e+00  -1.9162522376399382e+00  -1.8300256002578956e+00  -1.7255391213948161e+00  -1.6070627510011437e+00  -1.4794542537882009e+00  -1.3479691200299855e+00  -1.2180545193290515e+00  -1.0951351828602838e+00  -9.8439939897108020e-01  -8.9059328713238017e-01  -8.1783117688894091e-01  -7.6942926740079542e-01  -7.4776948626999762e-01  -7.5414976025640634e-01  -8.3794739219162484e-01  -8.3017058539707200e-01  -8.5380068538456000e-01  -9.0728818993197091e-01  -9.8786911214692197e-01  -1.0917732456265334e+00  -1.2143688103228738e+00  -1.3503431905803853e+00  -1.4939108233724721e+00  -1.6390396564278806e+00  -1.7796871186544525e+00  -1.9100363115698709e+00  -2.0247232056636175e+00  -2.1190460135493026e+00  -2.1891486203691293e+00  -2.2321709652468904e+00  -2.2463605493166079e+00  -2.2311407489868182e+00  -2.1871332822405147e+00  -2.1161339449829657e+00  -2.0210425365421942e+00  -1.9057496595187240e+00  -1.7749847404782069e+00  -1.6341311116333912e+00  -1.4890152614556631e+00  -1.3456783561706376e+00  -1.2101388174045151e+00  -1.0881550862529099e+00  -9.8499770028933498e-01  -9.0523946078678030e-01  -8.5257178194508632e-01  -8.2965522772175249e-01  -8.3794586232711155e-01  -8.8958131467280943e-01  -8.7917794469606803e-01  -9.0208890198108693e-01  -9.5671036317011116e-01  -1.0401505810692921e+00  -1.1484443476532065e+00  -1.2767072769810697e+00  -1.4193278265129490e+00  -1.5701879064057689e+00  -1.7229031922973672e+00  -1.8710735979082969e+00  -2.0085340650691879e+00  -2.1295958874021776e+00  -2.2292691910683540e+00  -2.3034579486941467e+00  -2.3491199762782142e+00  -2.3643857212599864e+00  -2.3486312448616991e+00  -2.3025025712149065e+00  -2.2278904529922969e+00  -2.1278565168111476e+00  -2.0065136272639421e+00  -1.8688650750967901e+00  -1.7206087841658644e+00  -1.5679140831433824e+00  -1.4171796509330210e+00  -1.2747819773196480e+00  -1.1468240573180422e+00  -1.0388940469761414e+00  -9.5584325185726249e-01  -9.0159211016464436e-01  -8.7897287445039829e-01  -8.8953821055669513e-01  -9.0703024930220488e-01  -8.9356299671492445e-01  -9.1404472322793495e-01  -9.6688835617681845e-01  -1.0491947865483164e+00  -1.1569648603796920e+00  -1.2852572568764242e+00  -1.4283843953737605e+00  -1.5801372978999288e+00  -1.7340304989953559e+00  -1.8835573533042531e+00  -2.0224457437486674e+00  -2.1449042263482214e+00  -2.2458490533900424e+00  -2.3211032779807987e+00  -2.3675602341888351e+00  -2.3833050707680399e+00  -2.3676896397620761e+00  -2.3213578437983715e+00  -2.2462204594652095e+00  -2.1453804048044112e+00  -2.0230113329413668e+00  -1.8841942369823148e+00  -1.7347183750949315e+00  -1.5808542080423069e+00  -1.4291071298659228e+00  -1.2859615268038425e+00  -1.1576250927423357e+00  -1.0497833464419073e+00  -9.6737394283810041e-01  -9.1438965422111163e-01  -8.9371904470709196e-01  -9.0694448145511586e-01  -8.8962355049552255e-01  -8.7268567618104009e-01  -8.8903623903440498e-01  -9.3717554095559596e-01  -1.0143179632400210e+00  -1.1165931397473441e+00  -1.2392011669798682e+00  -1.3766047789325040e+00  -1.5227497856238483e+00  -1.6713051380266584e+00  -1.8159132236777726e+00  -1.9504406279264417e+00  -2.0692196084146737e+00  -2.1672709141768487e+00  -2.2404993191003770e+00  -2.2858543059682503e+00  -2.3014496902792296e+00  -2.2866375626400570e+00  -2.2420336950926600e+00  -2.1694934321828696e+00  -2.0720390012659160e+00  -1.9537410543526330e+00  -1.8195590244321760e+00  -1.6751464758553476e+00  -1.5266289882089246e+00  -1.3803631863949235e+00  -1.2426862765294562e+00  -1.1196658381978339e+00  -1.0168596482100052e+00  -9.3909497200611958e-01  -8.9027605612670091e-01  -8.7322879990161606e-01  -8.8949591458682342e-01  -8.3802999231350173e-01  -8.1726871510713273e-01  -8.2786693775670517e-01  -8.6847994921085003e-01  -9.3655242621853818e-01  -1.0285009774119789e+00  -1.1398605169717062e+00  -1.2654652009965350e+00  -1.3996559017626595e+00  -1.5365061539120233e+00  -1.6700577766679914e+00  -1.7945570122534882e+00  -1.9046820154662041e+00  -1.9957528779646245e+00  -2.0639160586628349e+00  -2.1062960892870684e+00  -2.1211086942036439e+00  -2.1077309582642512e+00  -2.0667258379069491e+00  -1.9998200767407062e+00  -1.9098363889373584e+00  -1.8005825435890823e+00  -1.6767016539525881e+00  -1.5434894814329996e+00  -1.4066858497195154e+00  -1.2722482814204650e+00  -1.1461166774088216e+00  -1.0339782344863291e+00  -9.4104182724103502e-01  -8.7183076484471600e-01  -8.3000217329566051e-01  -8.1820158694044709e-01  -8.3786322962360849e-01  -7.5423214237838765e-01  -7.2937081659713499e-01  -7.3274679215719563e-01  -7.6323243552220521e-01  -8.1861105138580781e-01  -8.9573379277340448e-01  -9.9065138267045649e-01  -1.0987767280597871e+00  -1.2150713677974336e+00  -1.3342485510899540e+00  -1.4509850787181602e+00  -1.5601336981200840e+00  -1.6569278253545221e+00  -1.7371706706263013e+00  -1.7974014533385727e+00  -1.8350322835385180e+00  -1.8484504248176854e+00  -1.8370819945747519e+00  -1.8014146507131983e+00  -1.7429784012964153e+00  -1.6642852952338385e+00  -1.5687303465536477e+00  -1.4604575493178094e+00  -1.3441961991393618e+00  -1.2250738993123709e+00  -1.1084135484555058e+00  -9.9952225036067222e-01  -9.0348043175927373e-01  -8.2493948630843306e-01  -7.6793598633836069e-01  -7.3572991236275709e-01  -7.3067476186208358e-01  -7.5403081199879618e-01  -6.4145014972070691e-01  -6.1230836138624078e-01  -6.0720909943890289e-01  -6.2529600511657446e-01  -6.6478672367459113e-01  -7.2309821925071394e-01  -7.9695861279226188e-01  -8.8254509451804974e-01  -9.7564208014576181e-01  -1.0718135396158077e+00  -1.1665828526453870e+00  -1.2556132435269236e+00  -1.3348818216969269e+00  -1.4008405014115848e+00  -1.4505575827275570e+00  -1.4818345264069714e+00  -1.4932934168252432e+00  -1.4844317431284184e+00  -1.4556423950782169e+00  -1.4081981181678342e+00  -1.3442010518714180e+00  -1.2664993305364229e+00  -1.1785740084155698e+00  -1.0844007302065739e+00  -9.8829155980271999e-01  -8.9472316776812455e-01  -8.0815813277569393e-01  -7.3286641168214528e-01  -6.7275406908260260e-01  -6.3120612957011268e-01  -6.1094991714125613e-01  -6.1394572421276894e-01  -6.4122046828115742e-01  -5.0401800245730077e-01  -4.7052870038108763e-01  -4.5597624225459571e-01  -4.5981973386624592e-01  -4.8079054961663076e-01  -5.1698134665344631e-01  -5.6593357014588475e-01  -6.2474523801310045e-01  -6.9019462353959438e-01  -7.5887512527529610e-01  -8.2733615163015584e-01  -8.9222459898281081e-01  -9.5042146884372081e-01  -9.9916835203946652e-01  -1.0361788978852724e+00  -1.0597309667679806e+00  -1.0687359132639749e+00  -1.0627823336079540e+00  -1.0421526021589249e+00  -1.0078115791194988e+00  -9.6136795353908078e-01  -9.0500975189407185e-01  -8.4141655295330942e-01  -7.7365186335062330e-01  -7.0503989309244774e-01  -6.3903159644310670e-01  -5.7906528602487417e-01  -5.2842737276101459e-01  -4.9011882246291200e-01  -4.6673275032320810e-01  -4.6034819121076759e-01  -4.7244561048756106e-01  -5.0376761390854752e-01  -3.4721697423516373e-01  -3.0943986382847177e-01  -2.8477949626601218e-01  -2.7304286030970554e-01  -2.7353501843869876e-01  -2.8510853754292625e-01  -3.0622316198218485e-01  -3.3501920842320954e-01  -3.6940191585374721e-01  -4.0713358077557826e-01  -4.4592997646299998e-01  -4.8355736750130435e-01  -5.1792639274540997e-01  -5.4717920190072278e-01  -5.6976648663607443e-01  -5.8451143651527748e-01  -5.9065815628794616e-01  -5.8790268462552275e-01  -5.7640543242458742e-01  -5.5678458302505673e-01  -5.3009074093629838e-01  -4.9776385176131577e-01  -4.6157411345153154e-01  -4.2354923372206921e-01  -3.8589093629184457e-01  -3.5088405715518528e-01  -3.2080188748868788e-01  -2.9781160012586377e-01  -2.8388363493716617e-01  -2.8070881591666297e-01  -2.8962672042047366e-01  -3.1156937734339629e-01  -3.4695466689617466e-01  -1.7707266953996564e-01  -1.3520322650773048e-01  -1.0013979662927265e-01  -7.2056565102237236e-02  -5.0870431193301154e-02  -3.6249112082712920e-02  -2.7640565816272205e-02  -2.4309060382745738e-02  -2.5376842553458220e-02  -2.9869901372363769e-02  -3.6766130560838717e-02  -4.5044074911589196e-02  -5.3730404759054710e-02  -6.1944299292403041e-02  -6.8937032232337062e-02  -7.4125235903586814e-02  -7.7116564613332231e-02  -7.7726776195129701e-02  -7.5987587625480649e-02  -7.2145025215167191e-02  -6.6648368200536379e-02  -6.0130159630283592e-02  -5.3378118344408039e-02  -4.7300116804865663e-02  -4.2883677261480443e-02  -4.1151674966670590e-02  -4.3116112831393411e-02  -4.9731940238611404e-02  -6.1852927792543110e-02  -8.0191578185994747e-02  -1.0528494368341472e-01  -1.3746878478270438e-01  -1.7680804736645128e-01  -1.2346461791220358e-04   4.5502911239209805e-02   9.0882119029662908e-02   1.3546741391051018e-01   1.7871527948912286e-01   2.2011879252298963e-01   2.5920969750319944e-01   2.9556116189500048e-01   3.2879049662288973e-01   3.5856162250617829e-01   3.8458710650122924e-01   4.0662963798239693e-01   4.2450285884213479e-01   4.3807150044891791e-01   4.4725081598843641e-01   4.5200532756960277e-01   4.5234693259862080e-01   4.4833243509925663e-01   4.4006058291274419e-01   4.2766870051203126e-01   4.1132901185298787e-01   3.9124474581539198e-01   3.6764610860126334e-01   3.4078619508126567e-01   3.1093689240346600e-01   2.7838480509581259e-01   2.4342720253605002e-01   2.0636795595265398e-01   1.6751339438356569e-01   1.2716796713807196e-01   8.5629561939702267e-02   4.3183779578387795e-02   1.3341501409588953e-04   1.7683075681110538e-01   2.2573974429860033e-01   2.8095659321106353e-01   3.4157090586209315e-01   4.0642180574555353e-01   4.7417131050058209e-01   5.4333793641665062e-01   6.1233828213670172e-01   6.7953414186745298e-01   7.4328320948338189e-01   8.0199132967283615e-01   8.5416422578032103e-01   8.9845667800450069e-01   9.3371724055044281e-01   9.5902676835532130e-01   9.7372926632902967e-01   9.7745387029341690e-01   9.7012710662676260e-01   9.5197494431238328e-01   9.2351453746369350e-01   8.8553594164693572e-01   8.3907445905166889e-01   7.8537461353822902e-01   7.2584706119301756e-01   6.6201999396174727e-01   5.9548678394543886e-01   5.2785173471756686e-01   4.6067584908409565e-01   3.9542448689382387e-01   3.3341867210686343e-01   2.7579162324099743e-01   2.2345156898083421e-01   1.7706976559334578e-01   3.4698991722216588e-01   3.9857453394620507e-01   4.6276655074453493e-01   5.3831487011198453e-01   6.2347430008406624e-01   7.1611593338139379e-01   8.1379109954422035e-01   9.1381028945479814e-01   1.0133329607911237e+00   1.1094646364779328e+00   1.1993574608342279e+00   1.2803102797881181e+00   1.3498643559248928e+00   1.4058910152606141e+00   1.4466678436486988e+00   1.4709404973790035e+00   1.4779677468784054e+00   1.4675480136306365e+00   1.4400263669638327e+00   1.3962816902274333e+00   1.3376944771766293e+00   1.2660964525234186e+00   1.1837038953537131e+00   1.0930371548427404e+00   9.9682936166748004e-01   8.9792773421336569e-01   7.9919114117821310e-01   7.0338769994514216e-01   6.1309615746399193e-01   5.3061461825751244e-01   4.5787985671109216e-01   3.9639999636454371e-01   3.4720124446557743e-01   5.0381506619849581e-01   5.5734708804125110e-01   6.2928880583466140e-01   7.1808465993675219e-01   8.2146081248743785e-01   9.3656810679612568e-01   1.0600740195576750e+00   1.1882760063854714e+00   1.3172306614718354e+00   1.4428935877462052e+00   1.5612644945707528e+00   1.6685318757266312e+00   1.7612116637902788e+00   1.8362745068507400e+00   1.8912567635176560e+00   1.9243509444434610e+00   1.9344721194980750e+00   1.9212977321907476e+00   1.8852792798388747e+00   1.8276253910746325e+00   1.7502569228107154e+00   1.6557357630035627e+00   1.5471700235387196e+00   1.4280992020028167e+00   1.3023636462443737e+00   1.1739632430909779e+00   1.0469106486312716e+00   9.2508456582600096e-01   8.1208854811437703e-01   7.1112056284180636e-01   6.2485809148057692e-01   5.5536316554435250e-01   5.0398959898084339e-01   6.4127966621343591e-01   6.9592591136411741e-01   7.7406436772045362e-01   8.7388326253355397e-01   9.9265636964656501e-01   1.1269128752013402e+00   1.2725539115718023e+00   1.4249960868551552e+00   1.5793351536802838e+00   1.7305233884411741e+00   1.8735537583475870e+00   2.0036437305540358e+00   2.1164116182665937e+00   2.2080386652153567e+00   2.2754106301372770e+00   2.3162334263370714e+00   2.3291183710147836e+00   2.3136337650014052e+00   2.2703208120073413e+00   2.2006732505980606e+00   2.1070814577655588e+00   1.9927431380920519e+00   1.8615439863258409e+00   1.7179128537319046e+00   1.5666569170533782e+00   1.4127831054720830e+00   1.2613125559634881e+00   1.1170951208506104e+00   9.8463092982286271e-01   8.6790571220204804e-01   7.7024601628934786e-01   6.9420017313920623e-01   6.4140934683433071e-01   7.5410118629928391e-01   8.0894418520344302e-01   8.9144736437538885e-01   9.9960125680597056e-01   1.1303212562592562e+00   1.2796376931700566e+00   1.4428325980455503e+00   1.6146080279515602e+00   1.7892780801723169e+00   1.9609770811720482e+00   2.1238758518655443e+00   2.2723976773624304e+00   2.4014256484794241e+00   2.5064933923407926e+00   2.5839518582487533e+00   2.6311057516466230e+00   2.6463143766187973e+00   2.6290530122819513e+00   2.5799324609681045e+00   2.5006760065970912e+00   2.3940546498709172e+00   2.2637830817623272e+00   2.1143803561141183e+00   1.9510005698716038e+00   1.7792400036776548e+00   1.6049280725407389e+00   1.4339100522011305e+00   1.2718298551136662e+00   1.1239211177922923e+00   9.9481452642706258e-01   8.8836864598612508e-01   8.0753133058649396e-01   7.5417933384945468e-01   8.3794410371674866e-01   8.9200651211723891e-01   9.7682302827173673e-01   1.0902531315357840e+00   1.2289620583868657e+00   1.3886236395210425e+00   1.5640721828630304e+00   1.7494892716885364e+00   1.9386168790908025e+00   2.1249884882724466e+00   2.3021692521129240e+00   2.4639959165788317e+00   2.6048072674268412e+00   2.7196562396222079e+00   2.8044955439508685e+00   2.8563296872293620e+00   2.8733275535136036e+00   2.8548912271529590e+00   2.8016784148321969e+00   2.7155775998404077e+00   2.5996368709339448e+00   2.4579491400288194e+00   2.2954981310539297e+00   2.1179710227116799e+00   1.9315449037898036e+00   1.7426552037100722e+00   1.5577549532287325e+00   1.3830740847457683e+00   1.2243879827332429e+00   1.0868041354203610e+00   9.7457501382348943e-01   8.9094522743350135e-01   8.3796568817114447e-01   8.8958651126599519e-01   9.4185848604323053e-01   1.0267863825553587e+00   1.1421709085894907e+00   1.2845454717812035e+00   1.4493838831928032e+00   1.6312617001485739e+00   1.8240544814282433e+00   2.0211639587695158e+00   2.2157633324238577e+00   2.4010522030478896e+00   2.5705113179273957e+00   2.7181473384663266e+00   2.8387182335089989e+00   2.9279306543579415e+00   2.9826017254294244e+00   3.0007790512127173e+00   2.9818143417799394e+00   2.9263878354402264e+00   2.8364825814912971e+00   2.7153095651779173e+00   2.5671865386709025e+00   2.3973751939368872e+00   2.2118829085318308e+00   2.0172366543895115e+00   1.8202377301353456e+00   1.6277067211393272e+00   1.4462284812111599e+00   1.2819069459106660e+00   1.1401392263703956e+00   1.0254176776971460e+00   9.4116867639229962e-01   8.8954837027985667e-01   9.0704393098900504e-01   9.5651258014944796e-01   1.0392747843980810e+00   1.1531476694217455e