<VTKFile type="UnstructuredGrid" version="0.1" byte_order="LittleEndian">
<UnstructuredGrid>
<Piece NumberOfPoints="25" NumberOfCells="32">
<Points>
<DataArray type="Float64" NumberOfComponents="3" Format="ascii">  0.0000000000000000e+00  0.0000000000000000e+00  0.0000000000000000e+00   2.5000000000000000e-01  0.0000000000000000e+00  0.0000000000000000e+00   5.0000000000000000e-01  0.0000000000000000e+00  0.0000000000000000e+00   7.5000000000000000e-01  0.0000000000000000e+00  0.0000000000000000e+00   1.0000000000000000e+00  0.0000000000000000e+00  0.0000000000000000e+00   0.0000000000000000e+00  2.5000000000000000e-01  0.0000000000000000e+00   2.5000000000000000e-01  2.5000000000000000e-01  0.0000000000000000e+00   5.0000000000000000e-01  2.5000000000000000e-01  0.0000000000000000e+00   7.5000000000000000e-01  2.5000000000000000e-01  0.0000000000000000e+00   1.0000000000000000e+00  2.5000000000000000e-01  0.0000000000000000e+00   0.0000000000000000e+00  5.0000000000000000e-01  0.0000000000000000e+00   2.5000000000000000e-01  5.0000000000000000e-01  0.0000000000000000e+00   5.0000000000000000e-01  5.0000000000000000e-01  0.0000000000000000e+00   7.5000000000000000e-01  5.0000000000000000e-01  0.0000000000000000e+00   1.0000000000000000e+00  5.0000000000000000e-01  0.0000000000000000e+00   0.0000000000000000e+00  7.5000000000000000e-01  0.0000000000000000e+00   2.5000000000000000e-01  7.5000000000000000e-01  0.0000000000000000e+00   5.0000000000000000e-01  7.5000000000000000e-01  0.0000000000000000e+00   7.5000000000000000e-01  7.5000000000000000e-01  0.0000000000000000e+00   1.0000000000000000e+00  7.5000000000000000e-01  0.0000000000000000e+00   0.0000000000000000e+00  1.0000000000000000e+00  0.0000000000000000e+00   2.5000000000000000e-01  1.0000000000000000e+00  0.0000000000000000e+00   5.0000000000000000e-01  1.0000000000000000e+00  0.0000000000000000e+00   7.5000000000000000e-01  1.0000000000000000e+00  0.0000000000000000e+00   1.0000000000000000e+00  1.0000000000000000e+00  0.0000000000000000e+00 </DataArray>
</Points>
<PointData Scalars="scalars">
<DataArray type="Float64" Name="Solution Component 0 - ux" Format="ascii"> -2.3214787563184177e-02  -1.9569198404203278e-02  -2.5031128766266581e-02   1.2402050487760333e-02  -4.7382219917227811e-02  -1.0811473773400646e+00  -1.4538867577264791e+00  -2.0140265770160020e+00  -1.5240502961977329e+00  -1.0746321705614008e+00  -1.3923237088974987e-02   5.8482240177191869e-01   4.4856500974565378e-01   5.1256314406509088e-02   1.8964472959341356e-02   1.0855223006688579e+00   1.9755977595597922e+00   2.6481163703476902e+00   1.9023952843594207e+00   1.0800998043055681e+00   4.6352489953613268e-02  -7.9703847484027153e-03   2.6972835399026111e-02   2.2710176286059973e-02   9.7905645122393185e-03 </DataArray>
<DataArray type="Float64" Name="Solution Component 1 - uy" Format="ascii">  9.7915841765769882e-03   1.0800941768868533e+00   1.8960108026958505e-02  -1.0746307063708174e+00  -4.7417534439592408e-02   2.2717255741712052e-02   1.9019558246890480e+00   5.0866914108142328e-02  -1.5241589222664678e+00   1.2443464995504102e-02   2.6973669778920729e-02   2.6475062619777434e+00   4.4773388496838762e-01  -2.0146370374644382e+00  -2.5030256090156803e-02  -7.9290369264935420e-03   1.9754870613911402e+00   5.8442901033651029e-01  -1.4543309970619542e+00  -1.9562309324304979e-02   4.6317216122427007e-02   1.0855237578376751e+00  -1.3927725969142062e-02  -1.0811528851232677e+00  -2.3213542211305720e-02 </DataArray>
<DataArray type="Float64" Name="Solution Component 3 - p" Format="ascii">  5.0551443510557931e-02   7.0729791206864756e-01   9.8452224858161530e-01   7.1105579724328249e-01   4.7487425902959027e-02   4.6132594842725659e-02   4.7012604416666315e-01   6.6199188895640437e-01   5.0365708614703475e-01   3.9967736684682204e-02   4.3845909177963480e-02   3.1138684221780087e-02   3.8671366573152774e-02   7.2313686981283265e-02   4.2228351929405904e-02   3.3957816806245426e-02  -4.2631302773866891e-01  -6.1075989614122617e-01  -3.9280930073358655e-01   3.9568932839548626e-02   2.9844465768030196e-02  -6.3029258598540017e-01  -9.1586330401003846e-01  -6.3841624603139924e-01   2.6652667467828128e-02 </DataArray>
</PointData>
<CellData Scalars="scalars">
<DataArray type="Float64" Name="Solution Component 2 - u_eg " Format="ascii">  1.0917314393157680e-01  -1.3015803906680193e-01   2.6045841837371516e-02  -5.2530130988988129e-02  -1.8232031451224987e-02   1.1194343204579985e-01  -9.4559443170048348e-05  -1.5868521973689555e-04   5.8632901070739180e-02  -2.9916076211417168e-02  -1.7601408420016711e-02   1.1985726055388279e-02  -4.6657559381086797e-05  -8.7440106451906592e-05   1.8033016065732339e-02  -1.1220367696859131e-01  -1.0642392190787153e-01   1.3408621225230507e-02   8.7449796313108412e-05   4.6541908480049625e-05   1.7641820666555796e-02  -1.2026039393950170e-02  -2.6196439899928165e-02   5.2296854950953778e-02   1.5863201254672846e-04   9.4603896224297333e-05   1.0668396383214356e-01  -1.3209746004859557e-02  -5.8399369402793451e-02   3.0066501573701325e-02  -1.0915127525701454e-01   1.3013601880796619e-01 </DataArray>
<DataArray type="Float64" Name="Solution Component 4 - p_eg" Format="ascii"> -4.3174531418977785e-02  -3.7313484128428179e-02  -3.5381446284739729e-02  -3.1253171616366496e-02  -3.5660417265404504e-02  -3.8201822661970898e-02  -3.8709823273567756e-02  -4.1634946109760616e-02  -4.2712168528022239e-02  -4.0802517760246987e-02  -3.9067335438753452e-02  -3.7037040051438597e-02  -3.8206779356315647e-02  -3.7778192075832120e-02  -3.9824902839920254e-02  -3.7942671639257561e-02  -3.5124074988436137e-02  -3.9160851578753424e-02  -3.9609426355203592e-02  -3.9200411410003425e-02  -3.9288339347470044e-02  -3.9383322307782430e-02  -4.0863069087268139e-02  -4.2820967560706642e-02  -3.5701101400652774e-02  -3.8619254700639281e-02  -4.3443454641565363e-02  -4.0057579969359713e-02  -3.7905738945694462e-02  -3.7649923828621881e-02  -3.5574942424849237e-02  -3.8402285599946753e-02 </DataArray>
</CellData>
<Cells>
<DataArray type="Int64" Name="offsets" Format="ascii"> 3  6  9  12  15  18  21  24  27  30  33  36  39  42  45  48  51  54  57  60  63  66  69  72  75  78  81  84  87  90  93  96 </DataArray>
<DataArray type="Int64" Name="connectivity" Format="ascii">
 5  6  0  1  6  0  1  6  7  1  2  7  8  2  7  8  2  3  8  9  3  4  9  3  5  10  11  5  6  11  12  6  11  12  6  7  12  13  7  8  13  7  8  13  14  8  9  14  16  10  15  16  10  11  16  17  11  12  17  11  12  17  18  12  13  18  19  13  18  19  13  14  20  21  15  16  21  15  16  21  22  16  17  22  23  17  22  23  17  18  23  24  18  19  24  18 </DataArray>
<DataArray type="Int64" Name="types" Format="ascii"> 5  5  5  5  5  5  5  5  5  5  5  5  5  5  5  5  5  5  5  5  5  5  5  5  5  5  5  5  5  5  5  5 </DataArray>
</Cells>
</Piece>
</UnstructuredGrid>
</VTKFile>
