<VTKFile type="UnstructuredGrid" version="0.1" byte_order="LittleEndian">
<UnstructuredGrid>
<Piece NumberOfPoints="1089" NumberOfCells="2048">
<Points>
<DataArray type="Float64" NumberOfComponents="3" Format="ascii">0.00000000 0.00000000 0.00000000 0.03125000 0.00000000 0.00000000 0.06250000 0.00000000 0.00000000 0.09375000 0.00000000 0.00000000 0.12500000 0.00000000 0.00000000 0.15625000 0.00000000 0.00000000 0.18750000 0.00000000 0.00000000 0.21875000 0.00000000 0.00000000 0.25000000 0.00000000 0.00000000 0.28125000 0.00000000 0.00000000 0.31250000 0.00000000 0.00000000 0.34375000 0.00000000 0.00000000 0.37500000 0.00000000 0.00000000 0.40625000 0.00000000 0.00000000 0.43750000 0.00000000 0.00000000 0.46875000 0.00000000 0.00000000 0.50000000 0.00000000 0.00000000 0.53125000 0.00000000 0.00000000 0.56250000 0.00000000 0.00000000 0.59375000 0.00000000 0.00000000 0.62500000 0.00000000 0.00000000 0.65625000 0.00000000 0.00000000 0.68750000 0.00000000 0.00000000 0.71875000 0.00000000 0.00000000 0.75000000 0.00000000 0.00000000 0.78125000 0.00000000 0.00000000 0.81250000 0.00000000 0.00000000 0.84375000 0.00000000 0.00000000 0.87500000 0.00000000 0.00000000 0.90625000 0.00000000 0.00000000 0.93750000 0.00000000 0.00000000 0.96875000 0.00000000 0.00000000 1.00000000 0.00000000 0.00000000 0.00000000 0.03125000 0.00000000 0.03125000 0.03125000 0.00000000 0.06250000 0.03125000 0.00000000 0.09375000 0.03125000 0.00000000 0.12500000 0.03125000 0.00000000 0.15625000 0.03125000 0.00000000 0.18750000 0.03125000 0.00000000 0.21875000 0.03125000 0.00000000 0.25000000 0.03125000 0.00000000 0.28125000 0.03125000 0.00000000 0.31250000 0.03125000 0.00000000 0.34375000 0.03125000 0.00000000 0.37500000 0.03125000 0.00000000 0.40625000 0.03125000 0.00000000 0.43750000 0.03125000 0.00000000 0.46875000 0.03125000 0.00000000 0.50000000 0.03125000 0.00000000 0.53125000 0.03125000 0.00000000 0.56250000 0.03125000 0.00000000 0.59375000 0.03125000 0.00000000 0.62500000 0.03125000 0.00000000 0.65625000 0.03125000 0.00000000 0.68750000 0.03125000 0.00000000 0.71875000 0.03125000 0.00000000 0.75000000 0.03125000 0.00000000 0.78125000 0.03125000 0.00000000 0.81250000 0.03125000 0.00000000 0.84375000 0.03125000 0.00000000 0.87500000 0.03125000 0.00000000 0.90625000 0.03125000 0.00000000 0.93750000 0.03125000 0.00000000 0.96875000 0.03125000 0.00000000 1.00000000 0.03125000 0.00000000 0.00000000 0.06250000 0.00000000 0.03125000 0.06250000 0.00000000 0.06250000 0.06250000 0.00000000 0.09375000 0.06250000 0.00000000 0.12500000 0.06250000 0.00000000 0.15625000 0.06250000 0.00000000 0.18750000 0.06250000 0.00000000 0.21875000 0.06250000 0.00000000 0.25000000 0.06250000 0.00000000 0.28125000 0.06250000 0.00000000 0.31250000 0.06250000 0.00000000 0.34375000 0.06250000 0.00000000 0.37500000 0.06250000 0.00000000 0.40625000 0.06250000 0.00000000 0.43750000 0.06250000 0.00000000 0.46875000 0.06250000 0.00000000 0.50000000 0.06250000 0.00000000 0.53125000 0.06250000 0.00000000 0.56250000 0.06250000 0.00000000 0.59375000 0.06250000 0.00000000 0.62500000 0.06250000 0.00000000 0.65625000 0.06250000 0.00000000 0.68750000 0.06250000 0.00000000 0.71875000 0.06250000 0.00000000 0.75000000 0.06250000 0.00000000 0.78125000 0.06250000 0.00000000 0.81250000 0.06250000 0.00000000 0.84375000 0.06250000 0.00000000 0.87500000 0.06250000 0.00000000 0.90625000 0.06250000 0.00000000 0.93750000 0.06250000 0.00000000 0.96875000 0.06250000 0.00000000 1.00000000 0.06250000 0.00000000 0.00000000 0.09375000 0.00000000 0.03125000 0.09375000 0.00000000 0.06250000 0.09375000 0.00000000 0.09375000 0.09375000 0.00000000 0.12500000 0.09375000 0.00000000 0.15625000 0.09375000 0.00000000 0.18750000 0.09375000 0.00000000 0.21875000 0.09375000 0.00000000 0.25000000 0.09375000 0.00000000 0.28125000 0.09375000 0.00000000 0.31250000 0.09375000 0.00000000 0.34375000 0.09375000 0.00000000 0.37500000 0.09375000 0.00000000 0.40625000 0.09375000 0.00000000 0.43750000 0.09375000 0.00000000 0.46875000 0.09375000 0.00000000 0.50000000 0.09375000 0.00000000 0.53125000 0.09375000 0.00000000 0.56250000 0.09375000 0.00000000 0.59375000 0.09375000 0.00000000 0.62500000 0.09375000 0.00000000 0.65625000 0.09375000 0.00000000 0.68750000 0.09375000 0.00000000 0.71875000 0.09375000 0.00000000 0.75000000 0.09375000 0.00000000 0.78125000 0.09375000 0.00000000 0.81250000 0.09375000 0.00000000 0.84375000 0.09375000 0.00000000 0.87500000 0.09375000 0.00000000 0.90625000 0.09375000 0.00000000 0.93750000 0.09375000 0.00000000 0.96875000 0.09375000 0.00000000 1.00000000 0.09375000 0.00000000 0.00000000 0.12500000 0.00000000 0.03125000 0.12500000 0.00000000 0.06250000 0.12500000 0.00000000 0.09375000 0.12500000 0.00000000 0.12500000 0.12500000 0.00000000 0.15625000 0.12500000 0.00000000 0.18750000 0.12500000 0.00000000 0.21875000 0.12500000 0.00000000 0.25000000 0.12500000 0.00000000 0.28125000 0.12500000 0.00000000 0.31250000 0.12500000 0.00000000 0.34375000 0.12500000 0.00000000 0.37500000 0.12500000 0.00000000 0.40625000 0.12500000 0.00000000 0.43750000 0.12500000 0.00000000 0.46875000 0.12500000 0.00000000 0.50000000 0.12500000 0.00000000 0.53125000 0.12500000 0.00000000 0.56250000 0.12500000 0.00000000 0.59375000 0.12500000 0.00000000 0.62500000 0.12500000 0.00000000 0.65625000 0.12500000 0.00000000 0.68750000 0.12500000 0.00000000 0.71875000 0.12500000 0.00000000 0.75000000 0.12500000 0.00000000 0.78125000 0.12500000 0.00000000 0.81250000 0.12500000 0.00000000 0.84375000 0.12500000 0.00000000 0.87500000 0.12500000 0.00000000 0.90625000 0.12500000 0.00000000 0.93750000 0.12500000 0.00000000 0.96875000 0.12500000 0.00000000 1.00000000 0.12500000 0.00000000 0.00000000 0.15625000 0.00000000 0.03125000 0.15625000 0.00000000 0.06250000 0.15625000 0.00000000 0.09375000 0.15625000 0.00000000 0.12500000 0.15625000 0.00000000 0.15625000 0.15625000 0.00000000 0.18750000 0.15625000 0.00000000 0.21875000 0.15625000 0.00000000 0.25000000 0.15625000 0.00000000 0.28125000 0.15625000 0.00000000 0.31250000 0.15625000 0.00000000 0.34375000 0.15625000 0.00000000 0.37500000 0.15625000 0.00000000 0.40625000 0.15625000 0.00000000 0.43750000 0.15625000 0.00000000 0.46875000 0.15625000 0.00000000 0.50000000 0.15625000 0.00000000 0.53125000 0.15625000 0.00000000 0.56250000 0.15625000 0.00000000 0.59375000 0.15625000 0.00000000 0.62500000 0.15625000 0.00000000 0.65625000 0.15625000 0.00000000 0.68750000 0.15625000 0.00000000 0.71875000 0.15625000 0.00000000 0.75000000 0.15625000 0.00000000 0.78125000 0.15625000 0.00000000 0.81250000 0.15625000 0.00000000 0.84375000 0.15625000 0.00000000 0.87500000 0.15625000 0.00000000 0.90625000 0.15625000 0.00000000 0.93750000 0.15625000 0.00000000 0.96875000 0.15625000 0.00000000 1.00000000 0.15625000 0.00000000 0.00000000 0.18750000 0.00000000 0.03125000 0.18750000 0.00000000 0.06250000 0.18750000 0.00000000 0.09375000 0.18750000 0.00000000 0.12500000 0.18750000 0.00000000 0.15625000 0.18750000 0.00000000 0.18750000 0.18750000 0.00000000 0.21875000 0.18750000 0.00000000 0.25000000 0.18750000 0.00000000 0.28125000 0.18750000 0.00000000 0.31250000 0.18750000 0.00000000 0.34375000 0.18750000 0.00000000 0.37500000 0.18750000 0.00000000 0.40625000 0.18750000 0.00000000 0.43750000 0.18750000 0.00000000 0.46875000 0.18750000 0.00000000 0.50000000 0.18750000 0.00000000 0.53125000 0.18750000 0.00000000 0.56250000 0.18750000 0.00000000 0.59375000 0.18750000 0.00000000 0.62500000 0.18750000 0.00000000 0.65625000 0.18750000 0.00000000 0.68750000 0.18750000 0.00000000 0.71875000 0.18750000 0.00000000 0.75000000 0.18750000 0.00000000 0.78125000 0.18750000 0.00000000 0.81250000 0.18750000 0.00000000 0.84375000 0.18750000 0.00000000 0.87500000 0.18750000 0.00000000 0.90625000 0.18750000 0.00000000 0.93750000 0.18750000 0.00000000 0.96875000 0.18750000 0.00000000 1.00000000 0.18750000 0.00000000 0.00000000 0.21875000 0.00000000 0.03125000 0.21875000 0.00000000 0.06250000 0.21875000 0.00000000 0.09375000 0.21875000 0.00000000 0.12500000 0.21875000 0.00000000 0.15625000 0.21875000 0.00000000 0.18750000 0.21875000 0.00000000 0.21875000 0.21875000 0.00000000 0.25000000 0.21875000 0.00000000 0.28125000 0.21875000 0.00000000 0.31250000 0.21875000 0.00000000 0.34375000 0.21875000 0.00000000 0.37500000 0.21875000 0.00000000 0.40625000 0.21875000 0.00000000 0.43750000 0.21875000 0.00000000 0.46875000 0.21875000 0.00000000 0.50000000 0.21875000 0.00000000 0.53125000 0.21875000 0.00000000 0.56250000 0.21875000 0.00000000 0.59375000 0.21875000 0.00000000 0.62500000 0.21875000 0.00000000 0.65625000 0.21875000 0.00000000 0.68750000 0.21875000 0.00000000 0.71875000 0.21875000 0.00000000 0.75000000 0.21875000 0.00000000 0.78125000 0.21875000 0.00000000 0.81250000 0.21875000 0.00000000 0.84375000 0.21875000 0.00000000 0.87500000 0.21875000 0.00000000 0.90625000 0.21875000 0.00000000 0.93750000 0.21875000 0.00000000 0.96875000 0.21875000 0.00000000 1.00000000 0.21875000 0.00000000 0.00000000 0.25000000 0.00000000 0.03125000 0.25000000 0.00000000 0.06250000 0.25000000 0.00000000 0.09375000 0.25000000 0.00000000 0.12500000 0.25000000 0.00000000 0.15625000 0.25000000 0.00000000 0.18750000 0.25000000 0.00000000 0.21875000 0.25000000 0.00000000 0.25000000 0.25000000 0.00000000 0.28125000 0.25000000 0.00000000 0.31250000 0.25000000 0.00000000 0.34375000 0.25000000 0.00000000 0.37500000 0.25000000 0.00000000 0.40625000 0.25000000 0.00000000 0.43750000 0.25000000 0.00000000 0.46875000 0.25000000 0.00000000 0.50000000 0.25000000 0.00000000 0.53125000 0.25000000 0.00000000 0.56250000 0.25000000 0.00000000 0.59375000 0.25000000 0.00000000 0.62500000 0.25000000 0.00000000 0.65625000 0.25000000 0.00000000 0.68750000 0.25000000 0.00000000 0.71875000 0.25000000 0.00000000 0.75000000 0.25000000 0.00000000 0.78125000 0.25000000 0.00000000 0.81250000 0.25000000 0.00000000 0.84375000 0.25000000 0.00000000 0.87500000 0.25000000 0.00000000 0.90625000 0.25000000 0.00000000 0.93750000 0.25000000 0.00000000 0.96875000 0.25000000 0.00000000 1.00000000 0.25
[...]
<CellData Scalars="scalars">
<DataArray type="Float64" Name="L (layer)" Format="ascii"> 1  1  1  1  1  1  1  1  1  1  1  1  1  1  1  1  1  1  1  1  1  1  1  1  1  1  1  1  1  1  1  1  1  1  1  1  1  1  1  1  1  1  1  1  1  1  1  1  1  1  1  1  1  1  1  1  1  1  1  1  1  1  1  1  1  1  1  1  1  1  1  1  1  1  1  1  1  1  1  1  1  1  1  1  1  1  1  1  1  1  1  1  1  1  1  1  1  1  1  1  1  1  1  1  1  1  1  1  1  1  1  1  1  1  1  1  1  1  1  1  1  1  1  1  1  1  1  1  1  1  1  1  1  1  1  1  1  1  1  1  1  1  1  1  1  1  1  1  1  1  1  1  1  1  1  1  1  1  1  1  1  1  1  1  1  1  1  1  1  1  1  1  1  1  1  1  1  1  1  1  1  1  1  1  1  1  1  1  1  1  1  1  1  1  1  1  1  1  1  1  1  1  1  1  1  1  1  1  1  1  1  1  1  1  1  1  1  1  1  1  1  1  1  1  1  1  1  1  1  1  1  1  1  1  1  1  1  1  1  1  1  1  1  1  1  1  1  1  1  1  1  1  1  1  1  1  1  1  1  1  1  1  1  1  1  1  1  1  1  1  1  1  1  1  1  1  1  1  1  1  1  1  1  1  1  1  1  1  1  1  1  1  1  1  1  1  1  1  1  1  1  1  1  1  1  1  1  1  1  1  1  1  1  1  1  1  1  1  1  1  1  1  1  1  1  1  1  1  1  1  1  1  1  1  1  1  1  1  1  1  1  1  1  1  1  1  1  1  1  1  1  1  1  1  1  1  1  1  1  1  1  1  1  1  1  1  1  1  1  1  1  1  1  1  1  1  1  1  1  1  1  1  1  1  1  1  1  1  1  1  1  1  1  1  1  1  1  1  1  1  1  1  1  1  1  1  1  1  1  1  1  1  1  1  1  1  1  1  1  1  1  1  1  1  1  1  1  1  1  1  1  1  1  1  1  1  1  1  1  1  1  1  1  1  1  1  1  1  1  1  1  1  1  1  1  1  1  1  1  1  1  1  1  1  1  1  1  1  1  1  1  1  1  1  1  1  1  1  1  1  1  1  1  1  1  1  1  1  1  1  1  1  1  1  1  1  1  1  1  1  1  1  1  1  1  1  1  1  1  1  1  1  1  1  1  1  1  1  1  1  1  1  1  1  1  1  1  1  1  1  1  1  1  1  1  1  1  1  1  1  1  1  1  1  1  1  1  1  1  1  1  1  1  1  1  1  1  1  1  1  1  1  1  1  1  1  1  1  1  1  1  1  1  1  1  1  1  1  1  1  1  1  1  1  1  1  1  1  1  1  1  1  1  1  1  1  1  1  1  1  1  1  1  1  1  1  1  1  1  1  1  1  1  1  1  1  1  1  1  1  1  1  1  1  1  1  1  1  1  1  1  1  1  1  1  1  1  1  1  1  1  1  1  1  1  1  1  1  1  1  1  1  1  1  1  1  1  1  1  1  1  1  1  1  1  1  1  1  1  1  1  1  1  1  1  1  1  1  1  1  1  1  1  1  1  1  1  1  1  1  1  1  1  1  1  1  1  1  1  1  1  1  1  1  1  1  1  1  1  1  1  1  1  1  1  1  1  1  1  1  1  1  1  1  1  1  1  1  1  1  1  1  1  1  1  1  1  1  1  1  1  1  1  1  1  1  1  1  1  1  1  1  1  1  1  1  1  1  1  1  1  1  1  1  1  1  1  1  1  1  1  1  1  1  1  1  1  1  1  1  1  1  1  1  1  1  1  1  1  1  1  1  1  1  1  1  1  1  1  1  1  1  1  1  1  1  1  1  1  1  1  1  1  1  1  1  1  1  1  1  1  1  1  1  1  1  1  1  1  1  1  1  1  1  1  1  1  1  1  1  1  1  1  1  1  1  1  1  1  1  1  1  1  1  1  1  1  1  1  1  1  1  1  1  1  1  1  1  1  1  1  1  1  1  1  1  1  1  1  1  1  1  1  1  1  1  1  1  1  1  1  1  1  1  1  1  1  1  1  1  1  1  1  1  1  1  1  1  1  1  1  1  1  1  1  1  1  1  1  1  1  1  1  1  1  1  1  1  1  1  1  1  1  1  1  1  1  1  1  1  1  1  1  1  1  1  1  1  1  1  1  1  1  1  1  1  1  1  1  1  1  1  1  1  1  1  1  1  1  1  1  1  1  1  1  1  1  1  1  1  1  1  1  1  1  1  1  1  1  1  1  1  1  1  1  1  1  1  1  1  1  1  1  1  1  1  1  1  1  1  1  1  1  1  1  1  1  1  1  1  1  1  1  1  1  1  1  1  1  1  1  1  1  1  1  1  1  1  1  1  1  1  1  1  1  1  1  1  1  1  1  1  1  1  1  1  1  1  1  1  1  1  1  1  1  1  1  1  1  1  1  1  1  1  1  1  1  1  1  1  1  1  1  1  1  1  1  1  1  1  1  1  1  1  1  1  1  1  1  1  1  1  1  1  1  1  1  1  1  1  1  1  1  1  1  1  1  1  1  1  1  1  1  1  1  1  1  1  1  1  1  1  1  1  1  1  1  1  1  1  1  1  1  1  1  1  1  1  1  1  1  1  1  1  1  1  1  1  1  1  1  1  1  1  1  1  1  1  1  1  1  1  1  1  1  1  1  1  1  1  1  1  1  1  1  1  1  1  1  1  1  1  1  1  1  1  1  1  1  1  1  1  1  1  1  1  1  1  1  1  1  1  1  1  1  1  1  1  1  1  1  1  1  1  1  1  1  1  1  1  1  1  1  1  1  1  1  1  1  1  1  1  1  1  1  1  1  1  1  1  1  1  1  1  1  1  1  1  1  1  1  1  1  1  1  1  1  1  1  1  1  1  1  1  1  1  1  1  1  1  1  1  1  1  1  1  1  1  1  1  1  1  1  1  1  1  1  1  1  1  1  1  1  1  1  1  1  1  1  1  1  1  1  1  1  1  1  1  1  1  1  1  1  1  1  1  1  1  1  1  1  1  1  1  1  1  1  1  1  1  1  1  1  1  1  1  1  1  1  1  1  1  1  1  1  1  1  1  1  1  1  1  1  1  1  1  1  1  1  1  1  1  1  1  1  1  1  1  1  1  1  1  1  1  1  1  1  1  1  1  1  1  1  1  1  1  1  1  1  1  1  1  1  1  1  1  1  1  1  1  1  1  1  1  1  1  1  1  1  1  1  1  1  1  1  1  1  1  1  1  1  1  1  1  1  1  1  1  1  1  1  1  1  1  1  1  1  1  1  1  1  1  1  1  1  1  1  1  1  1  1  1  1  1  1  1  1  1  1  1  1  1  1  1  1  1  1  1  1  1  1  1  1  1  1  1  1  1  1  1  1  1  1  1  1  1  1  1  1  1  1  1  1  1  1  1  1  1  1  1  1  1  1  1  1  1  1  1  1  1  1  1  1  1  1  1  1  1  1  1  1  1  1  1  1  1  1  1  1  1  1  1  1  1  1  1  1  1  1  1  1  1  1  1  1  1  1  1  1  1  1  1  1  1  1  1  1  1  1  1  1  1  1  1  1  1  1  1  1  1  1  1  1  1  1  1  1  1  1  1  1  1  1  1  1  1  1  1  1  1  1  1  1  1  1  1  1  1  1  1  1  1  1  1  1  1  1  1  1  1  1  1  1  1  1  1  1  1  1  1  1  1  1  1  1  1  1  1  1  1  1  1  1  1  1  1  1  1  1  1  1  1  1  1  1  1  1  1  1  1  1  1  1  1  1  1  1  1  1  1  1  1  1  1  1  1  1  1  1  1  1  1  1  1  1  1  1  1  1  1  1  1  1  1  1  1  1  1  1  1  1  1  1  1  1  1  1  1  1  1  1  1  1  1  1  1  1  1  1  1  1  1  1  1  1  1  1  1  1  1  1  1  1  1  1  1  1  1  1  1  1  1  1  1  1  1  1  1  1  1  1  1  1  1  1  1  1  1  1  1  1  1  1  1  1  1  1  1  1  1  1  1  1  1  1  1  1  1  1  1  1  1  1  1  1  1  1  1  1  1  1  1  1  1  1  1  1  1  1  1  1  1  1  1  1  1  1  1  1  1  1  1  1  1  1  1  1  1  1  1  1  1  1  1  1  1  1  1  1  1  1  1  1  1  1  1  1  1  1  1  1  1  1  1  1  1  1  1  1  1  1  1  1  1  1  1  1  1  1  1  1  1  1  1  1  1  1  1  1  1  1  1  1  1  1  1  1  1  1  1  1  1  1  1  1  1  1  1  1  1  1  1  1  1  1  1  1  1  1  1  1  1  1  1  1  1  1  1  1  1  1  1  1  1  1  1  1  1  1  1  1  1  1  1  1  1  1  1  1  1  1  1  1  1  1  1  1  1  1  1  1  1  1  1  1  1  1  1  1  1  1  1  1  1  1  1  1  1  1  1  1  1  1  1  1  1  1  1  1  1  1  1  1  1  1  1  1  1  1  1  1  1  1  1  1  1  1  1  1  1  1  1  1  1  1  1  1  1  1  1  1  1  1  1  1  1  1  1  1  1  1  1  1  1  1  1  1  1  1  1  1  1  1  1  1  1  1  1  1  1  1  1  1  1  1  1  1  1  1  1  1  1  1  1  1  1  1  1 </DataArray>
</CellData>
<PointData Scalars="scalars">
<DataArray type="Int64" Name="v_bdry" Format="ascii"> 1  1  1  1  1  1  1  1  1  1  1  1  1  1  1  1  1  1  1  1  1  1  1  1  1  1  1  1  1  1  1  1  1  1  0  0  0  0  0  0  0  0  0  0  0  0  0  0  0  0  0  0  0  0  0  0  0  0  0  0  0  0  0  0  0  1  1  0  0  0  0  0  0  0  0  0  0  0  0  0  0  0  0  0  0  0  0  0  0  0  0  0  0  0  0  0  0  0  1  1  0  0  0  0  0  0  0  0  0  0  0  0  0  0  0  0  0  0  0  0  0  0  0  0  0  0  0  0  0  0  0  1  1  0  0  0  0  0  0  0  0  0  0  0  0  0  0  0  0  0  0  0  0  0  0  0  0  0  0  0  0  0  0  0  1  1  0  0  0  0  0  0  0  0  0  0  0  0  0  0  0  0  0  0  0  0  0  0  0  0  0  0  0  0  0  0  0  1  1  0  0  0  0  0  0  0  0  0  0  0  0  0  0  0  0  0  0  0  0  0  0  0  0  0  0  0  0  0  0  0  1  1  0  0  0  0  0  0  0  0  0  0  0  0  0  0  0  0  0  0  0  0  0  0  0  0  0  0  0  0  0  0  0  1  1  0  0  0  0  0  0  0  0  0  0  0  0  0  0  0  0  0  0  0  0  0  0  0  0  0  0  0  0  0  0  0  1  1  0  0  0  0  0  0  0  0  0  0  0  0  0  0  0  0  0  0  0  0  0  0  0  0  0  0  0  0  0  0  0  1  1  0  0  0  0  0  0  0  0  0  0  0  0  0  0  0  0  0  0  0  0  0  0  0  0  0  0  0  0  0  0  0  1  1  0  0  0  0  0  0  0  0  0  0  0  0  0  0  0  0  0  0  0  0  0  0  0  0  0  0  0  0  0  0  0  1  1  0  0  0  0  0  0  0  0  0  0  0  0  0  0  0  0  0  0  0  0  0  0  0  0  0  0  0  0  0  0  0  1  1  0  0  0  0  0  0  0  0  0  0  0  0  0  0  0  0  0  0  0  0  0  0  0  0  0  0  0  0  0  0  0  1  1  0  0  0  0  0  0  0  0  0  0  0  0  0  0  0  0  0  0  0  0  0  0  0  0  0  0  0  0  0  0  0  1  1  0  0  0  0  0  0  0  0  0  0  0  0  0  0  0  0  0  0  0  0  0  0  0  0  0  0  0  0  0  0  0  1  1  0  0  0  0  0  0  0  0  0  0  0  0  0  0  0  0  0  0  0  0  0  0  0  0  0  0  0  0  0  0  0  1  1  0  0  0  0  0  0  0  0  0  0  0  0  0  0  0  0  0  0  0  0  0  0  0  0  0  0  0  0  0  0  0  1  1  0  0  0  0  0  0  0  0  0  0  0  0  0  0  0  0  0  0  0  0  0  0  0  0  0  0  0  0  0  0  0  1  1  0  0  0  0  0  0  0  0  0  0  0  0  0  0  0  0  0  0  0  0  0  0  0  0  0  0  0  0  0  0  0  1  1  0  0  0  0  0  0  0  0  0  0  0  0  0  0  0  0  0  0  0  0  0  0  0  0  0  0  0  0  0  0  0  1  1  0  0  0  0  0  0  0  0  0  0  0  0  0  0  0  0  0  0  0  0  0  0  0  0  0  0  0  0  0  0  0  1  1  0  0  0  0  0  0  0  0  0  0  0  0  0  0  0  0  0  0  0  0  0  0  0  0  0  0  0  0  0  0  0  1  1  0  0  0  0  0  0  0  0  0  0  0  0  0  0  0  0  0  0  0  0  0  0  0  0  0  0  0  0  0  0  0  1  1  0  0  0  0  0  0  0  0  0  0  0  0  0  0  0  0  0  0  0  0  0  0  0  0  0  0  0  0  0  0  0  1  1  0  0  0  0  0  0  0  0  0  0  0  0  0  0  0  0  0  0  0  0  0  0  0  0  0  0  0  0  0  0  0  1  1  0  0  0  0  0  0  0  0  0  0  0  0  0  0  0  0  0  0  0  0  0  0  0  0  0  0  0  0  0  0  0  1  1  0  0  0  0  0  0  0  0  0  0  0  0  0  0  0  0  0  0  0  0  0  0  0  0  0  0  0  0  0  0  0  1  1  0  0  0  0  0  0  0  0  0  0  0  0  0  0  0  0  0  0  0  0  0  0  0  0  0  0  0  0  0  0  0  1  1  0  0  0  0  0  0  0  0  0  0  0  0  0  0  0  0  0  0  0  0  0  0  0  0  0  0  0  0  0  0  0  1  1  0  0  0  0  0  0  0  0  0  0  0  0  0  0  0  0  0  0  0  0  0  0  0  0  0  0  0  0  0  0  0  1  1  0  0  0  0  0  0  0  0  0  0  0  0  0  0  0  0  0  0  0  0  0  0  0  0  0  0  0  0  0  0  0  1  1  1  1  1  1  1  1  1  1  1  1  1  1  1  1  1  1  1  1  1  1  1  1  1  1  1  1  1  1  1  1  1  1 </DataArray>
<DataArray type="Float64" Name="ele" Format="ascii"> 0.000000e+00  0.000000e+00  0.000000e+00  0.000000e+00  0.000000e+00  0.000000e+00  0.000000e+00  0.000000e+00  0.000000e+00  0.000000e+00  0.000000e+00  0.000000e+00  0.000000e+00  0.000000e+00  0.000000e+00  0.000000e+00  0.000000e+00  0.000000e+00  0.000000e+00  0.000000e+00  0.000000e+00  0.000000e+00  0.000000e+00  0.000000e+00  0.000000e+00  0.000000e+00  0.000000e+00  0.000000e+00  0.000000e+00  0.000000e+00  0.000000e+00  0.000000e+00  0.000000e+00  0.000000e+00  0.000000e+00  0.000000e+00  0.000000e+00  0.000000e+00  0.000000e+00  0.000000e+00  0.000000e+00  0.000000e+00  0.000000e+00  0.000000e+00  0.000000e+00  0.000000e+00  0.000000e+00  0.000000e+00  0.000000e+00  0.000000e+00  0.000000e+00  0.000000e+00  0.000000e+00  0.000000e+00  0.000000e+00  0.000000e+00  0.000000e+00  0.000000e+00  0.000000e+00  0.000000e+00  0.000000e+00  0.000000e+00  0.000000e+00  0.000000e+00  0.000000e+00  0.000000e+00  0.000000e+00  0.000000e+00  0.000000e+00  0.000000e+00  0.000000e+00  0.000000e+00  0.000000e+00  0.000000e+00  0.000000e+00  0.000000e+00  0.000000e+00  0.000000e+00  0.000000e+00  0.000000e+00  0.000000e+00  0.000000e+00  0.000000e+00  0.000000e+00  0.000000e+00  0.000000e+00  0.000000e+00  0.000000e+00  0.000000e+00  0.000000e+00  0.000000e+00  0.000000e+00  0.000000e+00  0.000000e+00  0.000000e+00  0.000000e+00  0.000000e+00  0.000000e+00  0.000000e+00  0.000000e+00  0.000000e+00  0.000000e+00  0.000000e+00  0.000000e+00  0.000000e+00  0.000000e+00  0.000000e+00  0.000000e+00  0.000000e+00  0.000000e+00  0.000000e+00  0.000000e+00  0.000000e+00  0.000000e+00  0.000000e+00  0.000000e+00  0.000000e+00  0.000000e+00  0.000000e+00  0.000000e+00  0.000000e+00  0.000000e+00  0.000000e+00  0.000000e+00  0.000000e+00  0.000000e+00  0.000000e+00  0.000000e+00  0.000000e+00  0.000000e+00  0.000000e+00  0.000000e+00  0.000000e+00  0.000000e+00  0.000000e+00  0.000000e+00  0.000000e+00  0.000000e+00  0.000000e+00  0.000000e+00  0.000000e+00  0.000000e+00  0.000000e+00  0.000000e+00  0.000000e+00  0.000000e+00  0.000000e+00  0.000000e+00  0.000000e+00  0.000000e+00  0.000000e+00  0.000000e+00  0.000000e+00  0.000000e+00  0.000000e+00  0.000000e+00  0.000000e+00  0.000000e+00  0.000000e+00  0.000000e+00  0.000000e+00  0.000000e+00  0.000000e+00  0.000000e+00  0.000000e+00  0.000000e+00  0.000000e+00  0.000000e+00  0.000000e+00  0.000000e+00  0.000000e+00  0.000000e+00  0.000000e+00  0.000000e+00  0.000000e+00  0.000000e+00  0.000000e+00  0.000000e+00  0.000000e+00  0.000000e+00  0.000000e+00  0.000000e+00  0.000000e+00  0.000000e+00  0.000000e+00  0.000000e+00  0.000000e+00  0.000000e+00  0.000000e+00  0.000000e+00  0.000000e+00  0.000000e+00  0.000000e+00  0.000000e+00  0.000000e+00  0.000000e+00  0.000000e+00  0.000000e+00  0.000000e+00  0.000000e+00  0.000000e+00  0.000000e+00  0.000000e+00  0.000000e+00  0.000000e+00  0.000000e+00  0.000000e+00  0.000000e+00  0.000000e+00  0.000000e+00  0.000000e+00  0.000000e+00  0.000000e+00  0.000000e+00  0.000000e+00  0.000000e+00  0.000000e+00  0.000000e+00  0.000000e+00  0.000000e+00  0.000000e+00  0.000000e+00  0.000000e+00  0.000000e+00  0.000000e+00  0.000000e+00  0.000000e+00  0.000000e+00  0.000000e+00  0.000000e+00  0.000000e+00  0.000000e+00  0.000000e+00  0.000000e+00  0.000000e+00  0.000000e+00  0.000000e+00  0.000000e+00  0.000000e+00  0.000000e+00  0.000000e+00  0.000000e+00  0.000000e+00  0.000000e+00  0.000000e+00  0.000000e+00  0.000000e+00  0.000000e+00  0.000000e+00  0.000000e+00  0.000000e+00  0.000000e+00  0.000000e+00  0.000000e+00  0.000000e+00  0.000000e+00  0.000000e+00  0.000000e+00  0.000000e+00  0.000000e+00  0.000000e+00  0.000000e+00  0.000000e+00  0.000000e+00  0.000000e+00  0.000000e+00  0.000000e+00  0.000000e+00  0.000000e+00  0.000000e+00  0.000000e+00  0.000000e+00  0.000000e+00  0.000000e+00  0.000000e+00  0.000000e+00  0.000000e+00  0.000000e+00  0.000000e+00  0.000000e+00  0.000000e+00  0.000000e+00  0.000000e+00  0.000000e+00  0.000000e+00  0.000000e+00  0.000000e+00  0.000000e+00  0.000000e+00  0.000000e+00  0.000000e+00  0.000000e+00  0.000000e+00  0.000000e+00  0.000000e+00  0.000000e+00  0.000000e+00  0.000000e+00  0.000000e+00  0.000000e+00  0.000000e+00  0.000000e+00  0.000000e+00  0.000000e+00  0.000000e+00  0.000000e+00  0.000000e+00  0.000000e+00  0.000000e+00  0.000000e+00  0.000000e+00  0.000000e+00  0.000000e+00  0.000000e+00  0.000000e+00  0.000000e+00  0.000000e+00  0.000000e+00  0.000000e+00  0.000000e+00  0.000000e+00  0.000000e+00  0.000000e+00  0.000000e+00  0.000000e+00  0.000000e+00  0.000000e+00  0.000000e+00  0.000000e+00  0.000000e+00  0.000000e+00  0.000000e+00  0.000000e+00  0.000000e+00  0.000000e+00  0.000000e+00  0.000000e+00  0.000000e+00  0.000000e+00  0.000000e+00  0.000000e+00  0.000000e+00  0.000000e+00  0.000000e+00  0.000000e+00  0.000000e+00  0.000000e+00  0.000000e+00  0.000000e+00  0.000000e+00  0.000000e+00  0.000000e+00  0.000000e+00  0.000000e+00  0.000000e+00  0.000000e+00  0.000000e+00  0.000000e+00  0.000000e+00  0.000000e+00  0.000000e+00  0.000000e+00  0.000000e+00  0.000000e+00  0.000000e+00  0.000000e+00  0.000000e+00  0.000000e+00  0.000000e+00  0.000000e+00  0.000000e+00  0.000000e+00  0.000000e+00  0.000000e+00  0.000000e+00  0.000000e+00  0.000000e+00  0.000000e+00  0.000000e+00  0.000000e+00  0.000000e+00  0.000000e+00  0.000000e+00  0.000000e+00  0.000000e+00  0.000000e+00  0.000000e+00  0.000000e+00  0.000000e+00  0.000000e+00  0.000000e+00  0.000000e+00  0.000000e+00  0.000000e+00  0.000000e+00  0.000000e+00  0.000000e+00  0.000000e+00  0.000000e+00  0.000000e+00  0.000000e+00  0.000000e+00  0.000000e+00  0.000000e+00  0.000000e+00  0.000000e+00  0.000000e+00  0.000000e+00  0.000000e+00  0.000000e+00  0.000000e+00  0.000000e+00  0.000000e+00  0.000000e+00  0.000000e+00  0.000000e+00  0.000000e+00  0.000000e+00  0.000000e+00  0.000000e+00  0.000000e+00  0.000000e+00  0.000000e+00  0.000000e+00  0.000000e+00  0.000000e+00  0.000000e+00  0.000000e+00  0.000000e+00  0.000000e+00  0.000000e+00  0.000000e+00  0.000000e+00  0.000000e+00  0.000000e+00  0.000000e+00  0.000000e+00  0.000000e+00  0.000000e+00  0.000000e+00  0.000000e+00  0.000000e+00  0.000000e+00  0.000000e+00  0.000000e+00  0.000000e+00  0.000000e+00  0.000000e+00  0.000000e+00  0.000000e+00  0.000000e+00  0.000000e+00  0.000000e+00  0.000000e+00  0.000000e+00  0.000000e+00  0.000000e+00  0.000000e+00  0.000000e+00  0.000000e+00  0.000000e+00  0.000000e+00  0.000000e+00  0.000000e+00  0.000000e+00  0.000000e+00  0.000000e+00  0.000000e+00  0.000000e+00  0.000000e+00  0.000000e+00  0.000000e+00  0.000000e+00  0.000000e+00  0.000000e+00  0.000000e+00  0.000000e+00  0.000000e+00  0.000000e+00  0.000000e+00  0.000000e+00  0.000000e+00  0.000000e+00  0.000000e+00  0.000000e+00  0.000000e+00  0.000000e+00  0.000000e+00  0.000000e+00  0.000000e+00  0.000000e+00  0.000000e+00  0.000000e+00  0.000000e+00  0.000000e+00  0.000000e+00  0.000000e+00  0.000000e+00  0.000000e+00  0.000000e+00  0.000000e+00  0.000000e+00  0.000000e+00  0.000000e+00  0.000000e+00  0.000000e+00  0.000000e+00  0.000000e+00  0.000000e+00  0.000000e+00  0.000000e+00  0.000000e+00  0.000000e+00  0.000000e+00  0.000000e+00  0.000000e+00  0.000000e+00  0.000000e+00  0.000000e+00  0.000000e+00  0.000000e+00  0.000000e+00  0.000000e+00  0.000000e+00  0.000000e+00  0.000000e+00  0.000000e+00  0.000000e+00  0.000000e+00  0.000000e+00  0.000000e+00  0.000000e+00  0.000000e+00  0.000000e+00  0.000000e+00  0.000000e+00  0.000000e+00  0.000000e+00  0.000000e+00  0.000000e+00  0.000000e+00  0.000000e+00  0.000000e+00  0.000000e+00  0.000000e+00  0.000000e+00  0.000000e+00  0.000000e+00  0.000000e+00  0.000000e+00  0.000000e+00  0.000000e+00  0.000000e+00  0.000000e+00  0.000000e+00  0.000000e+00  0.000000e+00  0.000000e+00  0.000000e+00  0.000000e+00  0.000000e+00  0.000000e+00  0.000000e+00  0.000000e+00  0.000000e+00  0.000000e+00  0.000000e+00  0.000000e+00  0.000000e+00  0.000000e+00  0.000000e+00  0.000000e+00  0.000000e+00  0.000000e+00  0.000000e+00  0.000000e+00  0.000000e+00  0.000000e+00  0.000000e+00  0.000000e+00  0.000000e+00  0.000000e+00  0.000000e+00  0.000000e+00  0.000000e+00  0.000000e+00  0.000000e+00  0.000000e+00  0.000000e+00  0.000000e+00  0.000000e+00  0.000000e+00  0.000000e+00  0.000000e+00  0.000000e+00  0.000000e+00  0.000000e+00  0.000000e+00  0.000000e+00  0.000000e+00  0.000000e+00  0.000000e+00  0.000000e+00  0.000000e+00  0.000000e+00  0.000000e+00  0.000000e+00  0.000000e+00  0.000000e+00  0.000000e+00  0.000000e+00  0.000000e+00  0.000000e+00  0.000000e+00  0.000000e+00  0.000000e+00  0.000000e+00  0.000000e+00  0.000000e+00  0.000000e+00  0.000000e+00  0.000000e+00  0.000000e+00  0.000000e+00  0.000000e+00  0.000000e+00  0.000000e+00  0.000000e+00  0.000000e+00  0.000000e+00  0.000000e+00  0.000000e+00  0.000000e+00  0.000000e+00  0.000000e+00  0.000000e+00  0.000000e+00  0.000000e+00  0.000000e+00  0.000000e+00  0.000000e+00  0.000000e+00  0.000000e+00  0.000000e+00  0.000000e+00  0.000000e+00  0.000000e+00  0.000000e+00  0.000000e+00  0.000000e+00  0.000000e+00  0.000000e+00  0.000000e+00  0.000000e+00  0.000000e+00  0.000000e+00  0.000000e+00  0.000000e+00  0.000000e+00  0.000000e+00  0.000000e+00  0.000000e+00  0.000000e+00  0.000000e+00  0.000000e+00  0.000000e+00  0.000000e+00  0.000000e+00  0.000000e+00  0.000000e+00  0.000000e+00  0.000000e+00  0.000000e+00  0.000000e+00  0.000000e+00  0.000000e+00  0.000000e+00  0.000000e+00  0.000000e+00  0.000000e+00  0.000000e+00  0.000000e+00  0.000000e+00  0.000000e+00  0.000000e+00  0.000000e+00  0.000000e+00  0.000000e+00  0.000000e+00  0.000000e+00  0.000000e+00  0.000000e+00  0.000000e+00  0.000000e+00  0.000000e+00  0.000000e+00  0.000000e+00  0.000000e+00  0.000000e+00  0.000000e+00  0.000000e+00  0.000000e+00  0.000000e+00  0.000000e+00  0.000000e+00  0.000000e+00  0.000000e+00  0.000000e+00  0.000000e+00  0.000000e+00  0.000000e+00  0.000000e+00  0.000000e+00  0.000000e+00  0.000000e+00  0.000000e+00  0.000000e+00  0.000000e+00  0.000000e+00  0.000000e+00  0.000000e+00  0.000000e+00  0.000000e+00  0.000000e+00  0.000000e+00  0.000000e+00  0.000000e+00  0.000000e+00  0.000000e+00  0.000000e+00  0.000000e+00  0.000000e+00  0.000000e+00  0.000000e+00  0.000000e+00  0.000000e+00  0.000000e+00  0.000000e+