<VTKFile type="UnstructuredGrid" version="0.1" byte_order="LittleEndian">
<UnstructuredGrid>
<Piece NumberOfPoints="81" NumberOfCells="128">
<Points>
<DataArray type="Float64" NumberOfComponents="3" Format="ascii">0.00000000 0.00000000 0.00000000 0.12500000 0.00000000 0.00000000 0.25000000 0.00000000 0.00000000 0.37500000 0.00000000 0.00000000 0.50000000 0.00000000 0.00000000 0.62500000 0.00000000 0.00000000 0.75000000 0.00000000 0.00000000 0.87500000 0.00000000 0.00000000 1.00000000 0.00000000 0.00000000 0.00000000 0.12500000 0.00000000 0.12500000 0.12500000 0.00000000 0.25000000 0.12500000 0.00000000 0.37500000 0.12500000 0.00000000 0.50000000 0.12500000 0.00000000 0.62500000 0.12500000 0.00000000 0.75000000 0.12500000 0.00000000 0.87500000 0.12500000 0.00000000 1.00000000 0.12500000 0.00000000 0.00000000 0.25000000 0.00000000 0.12500000 0.25000000 0.00000000 0.25000000 0.25000000 0.00000000 0.37500000 0.25000000 0.00000000 0.50000000 0.25000000 0.00000000 0.62500000 0.25000000 0.00000000 0.75000000 0.25000000 0.00000000 0.87500000 0.25000000 0.00000000 1.00000000 0.25000000 0.00000000 0.00000000 0.37500000 0.00000000 0.12500000 0.37500000 0.00000000 0.25000000 0.37500000 0.00000000 0.37500000 0.37500000 0.00000000 0.50000000 0.37500000 0.00000000 0.62500000 0.37500000 0.00000000 0.75000000 0.37500000 0.00000000 0.87500000 0.37500000 0.00000000 1.00000000 0.37500000 0.00000000 0.00000000 0.50000000 0.00000000 0.12500000 0.50000000 0.00000000 0.25000000 0.50000000 0.00000000 0.37500000 0.50000000 0.00000000 0.50000000 0.50000000 0.00000000 0.62500000 0.50000000 0.00000000 0.75000000 0.50000000 0.00000000 0.87500000 0.50000000 0.00000000 1.00000000 0.50000000 0.00000000 0.00000000 0.62500000 0.00000000 0.12500000 0.62500000 0.00000000 0.25000000 0.62500000 0.00000000 0.37500000 0.62500000 0.00000000 0.50000000 0.62500000 0.00000000 0.62500000 0.62500000 0.00000000 0.75000000 0.62500000 0.00000000 0.87500000 0.62500000 0.00000000 1.00000000 0.62500000 0.00000000 0.00000000 0.75000000 0.00000000 0.12500000 0.75000000 0.00000000 0.25000000 0.75000000 0.00000000 0.37500000 0.75000000 0.00000000 0.50000000 0.75000000 0.00000000 0.62500000 0.75000000 0.00000000 0.75000000 0.75000000 0.00000000 0.87500000 0.75000000 0.00000000 1.00000000 0.75000000 0.00000000 0.00000000 0.87500000 0.00000000 0.12500000 0.87500000 0.00000000 0.25000000 0.87500000 0.00000000 0.37500000 0.87500000 0.00000000 0.50000000 0.87500000 0.00000000 0.62500000 0.87500000 0.00000000 0.75000000 0.87500000 0.00000000 0.87500000 0.87500000 0.00000000 1.00000000 0.87500000 0.00000000 0.00000000 1.00000000 0.00000000 0.12500000 1.00000000 0.00000000 0.25000000 1.00000000 0.00000000 0.37500000 1.00000000 0.00000000 0.50000000 1.00000000 0.00000000 0.62500000 1.00000000 0.00000000 0.75000000 1.00000000 0.00000000 0.87500000 1.00000000 0.00000000 1.00000000 1.00000000 0.00000000 </DataArray>
</Points>
<CellData Scalars="scalars">
<DataArray type="Float64" Name="L (layer)" Format="ascii"> 1  1  1  1  1  1  1  1  1  1  1  1  1  1  1  1  1  1  1  1  1  1  1  1  1  1  1  1  1  1  1  1  1  1  1  1  1  1  1  1  1  1  1  1  1  1  1  1  1  1  1  1  1  1  1  1  1  1  1  1  1  1  1  1  1  1  1  1  1  1  1  1  1  1  1  1  1  1  1  1  1  1  1  1  1  1  1  1  1  1  1  1  1  1  1  1  1  1  1  1  1  1  1  1  1  1  1  1  1  1  1  1  1  1  1  1  1  1  1  1  1  1  1  1  1  1  1  1 </DataArray>
</CellData>
<PointData Scalars="scalars">
<DataArray type="Int64" Name="v_bdry" Format="ascii"> 1  1  1  1  1  1  1  1  1  1  0  0  0  0  0  0  0  1  1  0  0  0  0  0  0  0  1  1  0  0  0  0  0  0  0  1  1  0  0  0  0  0  0  0  1  1  0  0  0  0  0  0  0  1  1  0  0  0  0  0  0  0  1  1  0  0  0  0  0  0  0  1  1  1  1  1  1  1  1  1  1 </DataArray>
<DataArray type="Float64" Name="ele" Format="ascii"> 0.000000e+00  0.000000e+00  0.000000e+00  0.000000e+00  0.000000e+00  0.000000e+00  0.000000e+00  0.000000e+00  0.000000e+00  0.000000e+00  0.000000e+00  0.000000e+00  0.000000e+00  0.000000e+00  0.000000e+00  0.000000e+00  0.000000e+00  0.000000e+00  0.000000e+00  0.000000e+00  0.000000e+00  0.000000e+00  0.000000e+00  0.000000e+00  0.000000e+00  0.000000e+00  0.000000e+00  0.000000e+00  0.000000e+00  0.000000e+00  0.000000e+00  0.000000e+00  0.000000e+00  0.000000e+00  0.000000e+00  0.000000e+00  0.000000e+00  0.000000e+00  0.000000e+00  0.000000e+00  0.000000e+00  0.000000e+00  0.000000e+00  0.000000e+00  0.000000e+00  0.000000e+00  0.000000e+00  0.000000e+00  0.000000e+00  0.000000e+00  0.000000e+00  0.000000e+00  0.000000e+00  0.000000e+00  0.000000e+00  0.000000e+00  0.000000e+00  0.000000e+00  0.000000e+00  0.000000e+00  0.000000e+00  0.000000e+00  0.000000e+00  0.000000e+00  0.000000e+00  0.000000e+00  0.000000e+00  0.000000e+00  0.000000e+00  0.000000e+00  0.000000e+00  0.000000e+00  0.000000e+00  0.000000e+00  0.000000e+00  0.000000e+00  0.000000e+00  0.000000e+00  0.000000e+00  0.000000e+00  0.000000e+00 </DataArray>
</PointData>
<Cells>
<DataArray type="Int64" Name="offsets" Format="ascii"> 3  6  9  12  15  18  21  24  27  30  33  36  39  42  45  48  51  54  57  60  63  66  69  72  75  78  81  84  87  90  93  96  99  102  105  108  111  114  117  120  123  126  129  132  135  138  141  144  147  150  153  156  159  162  165  168  171  174  177  180  183  186  189  192  195  198  201  204  207  210  213  216  219  222  225  228  231  234  237  240  243  246  249  252  255  258  261  264  267  270  273  276  279  282  285  288  291  294  297  300  303  306  309  312  315  318  321  324  327  330  333  336  339  342  345  348  351  354  357  360  363  366  369  372  375  378  381  384 </DataArray>
<DataArray type="Int64" Name="connectivity" Format="ascii">
9 10 0 1 10 0 1 10 11 1 2 11 12 2 11 12 2 3 12 13 3 4 13 3 4 13 14 4 5 14 15 5 14 15 5 6 15 16 6 7 16 6 7 16 17 7 8 17 9 18 19 9 10 19 20 10 19 20 10 11 20 21 11 12 21 11 12 21 22 12 13 22 23 13 22 23 13 14 23 24 14 15 24 14 15 24 25 15 16 25 26 16 25 26 16 17 28 18 27 28 18 19 28 29 19 20 29 19 20 29 30 20 21 30 31 21 30 31 21 22 31 32 22 23 32 22 23 32 33 23 24 33 34 24 33 34 24 25 34 35 25 26 35 25 36 37 27 28 37 27 28 37 38 28 29 38 39 29 38 39 29 30 39 40 30 31 40 30 31 40 41 31 32 41 42 32 41 42 32 33 42 43 33 34 43 33 34 43 44 34 35 44 36 45 46 36 37 46 47 37 46 47 37 38 47 48 38 39 48 38 39 48 49 39 40 49 50 40 49 50 40 41 50 51 41 42 51 41 42 51 52 42 43 52 53 43 52 53 43 44 55 45 54 55 45 46 55 56 46 47 56 46 47 56 57 47 48 57 58 48 57 58 48 49 58 59 49 50 59 49 50 59 60 50 51 60 61 51 60 61 51 52 61 62 52 53 62 52 63 64 54 55 64 54 55 64 65 55 56 65 66 56 65 66 56 57 66 67 57 58 67 57 58 67 68 58 59 68 69 59 68 69 59 60 69 70 60 61 70 60 61 70 71 61 62 71 63 72 73 63 64 73 74 64 73 74 64 65 74 75 65 66 75 65 66 75 76 66 67 76 77 67 76 77 67 68 77 78 68 69 78 68 69 78 79 69 70 79 80 70 79 80 70 71 </DataArray>
<DataArray type="Int64" Name="types" Format="ascii"> 5  5  5  5  5  5  5  5  5  5  5  5  5  5  5  5  5  5  5  5  5  5  5  5  5  5  5  5  5  5  5  5  5  5  5  5  5  5  5  5  5  5  5  5  5  5  5  5  5  5  5  5  5  5  5  5  5  5  5  5  5  5  5  5  5  5  5  5  5  5  5  5  5  5  5  5  5  5  5  5  5  5  5  5  5  5  5  5  5  5  5  5  5  5  5  5  5  5  5  5  5  5  5  5  5  5  5  5  5  5  5  5  5  5  5  5  5  5  5  5  5  5  5  5  5  5  5  5 </DataArray>
</Cells>
</Piece>
</UnstructuredGrid>
</VTKFile>
