<VTKFile type="UnstructuredGrid" version="0.1" byte_order="LittleEndian">
<UnstructuredGrid>
<Piece NumberOfPoints="25" NumberOfCells="32">
<Points>
<DataArray type="Float64" NumberOfComponents="3" Format="ascii">0.00000000 0.00000000 0.00000000 0.25000000 0.00000000 0.00000000 0.50000000 0.00000000 0.00000000 0.75000000 0.00000000 0.00000000 1.00000000 0.00000000 0.00000000 0.00000000 0.25000000 0.00000000 0.25000000 0.25000000 0.00000000 0.50000000 0.25000000 0.00000000 0.75000000 0.25000000 0.00000000 1.00000000 0.25000000 0.00000000 0.00000000 0.50000000 0.00000000 0.25000000 0.50000000 0.00000000 0.50000000 0.50000000 0.00000000 0.75000000 0.50000000 0.00000000 1.00000000 0.50000000 0.00000000 0.00000000 0.75000000 0.00000000 0.25000000 0.75000000 0.00000000 0.50000000 0.75000000 0.00000000 0.75000000 0.75000000 0.00000000 1.00000000 0.75000000 0.00000000 0.00000000 1.00000000 0.00000000 0.25000000 1.00000000 0.00000000 0.50000000 1.00000000 0.00000000 0.75000000 1.00000000 0.00000000 1.00000000 1.00000000 0.00000000 </DataArray>
</Points>
<CellData Scalars="scalars">
<DataArray type="Float64" Name="L (layer)" Format="ascii"> 1  1  1  1  1  1  1  1  1  1  1  1  1  1  1  1  1  1  1  1  1  1  1  1  1  1  1  1  1  1  1  1 </DataArray>
</CellData>
<PointData Scalars="scalars">
<DataArray type="Int64" Name="v_bdry" Format="ascii"> 1  1  1  1  1  1  0  0  0  1  1  0  0  0  1  1  0  0  0  1  1  1  1  1  1 </DataArray>
<DataArray type="Float64" Name="ele" Format="ascii"> 0.000000e+00  0.000000e+00  0.000000e+00  0.000000e+00  0.000000e+00  0.000000e+00  0.000000e+00  0.000000e+00  0.000000e+00  0.000000e+00  0.000000e+00  0.000000e+00  0.000000e+00  0.000000e+00  0.000000e+00  0.000000e+00  0.000000e+00  0.000000e+00  0.000000e+00  0.000000e+00  0.000000e+00  0.000000e+00  0.000000e+00  0.000000e+00  0.000000e+00 </DataArray>
</PointData>
<Cells>
<DataArray type="Int64" Name="offsets" Format="ascii"> 3  6  9  12  15  18  21  24  27  30  33  36  39  42  45  48  51  54  57  60  63  66  69  72  75  78  81  84  87  90  93  96 </DataArray>
<DataArray type="Int64" Name="connectivity" Format="ascii">
5 6 0 1 6 0 1 6 7 1 2 7 8 2 7 8 2 3 8 9 3 4 9 3 5 10 11 5 6 11 12 6 11 12 6 7 12 13 7 8 13 7 8 13 14 8 9 14 16 10 15 16 10 11 16 17 11 12 17 11 12 17 18 12 13 18 19 13 18 19 13 14 20 21 15 16 21 15 16 21 22 16 17 22 23 17 22 23 17 18 23 24 18 19 24 18 </DataArray>
<DataArray type="Int64" Name="types" Format="ascii"> 5  5  5  5  5  5  5  5  5  5  5  5  5  5  5  5  5  5  5  5  5  5  5  5  5  5  5  5  5  5  5  5 </DataArray>
</Cells>
</Piece>
</UnstructuredGrid>
</VTKFile>
