<VTKFile type="UnstructuredGrid" version="0.1" byte_order="LittleEndian">
<UnstructuredGrid>
<Piece NumberOfPoints="125" NumberOfCells="384">
<Points>
<DataArray type="Float64" NumberOfComponents="3" Format="ascii">                      0                       0                       0                    0.25                       0                       0                     0.5                       0                       0                    0.75                       0                       0                       1                       0                       0                       0                    0.25                       0                    0.25                    0.25                       0                     0.5                    0.25                       0                    0.75                    0.25                       0                       1                    0.25                       0                       0                     0.5                       0                    0.25                     0.5                       0                     0.5                     0.5                       0                    0.75                     0.5                       0                       1                     0.5                       0                       0                    0.75                       0                    0.25                    0.75                       0                     0.5                    0.75                       0                    0.75                    0.75                       0                       1                    0.75                       0                       0                       1                       0                    0.25                       1                       0                     0.5                       1                       0                    0.75                       1                       0                       1                       1                       0                       0                       0                    0.25                    0.25                       0                    0.25                     0.5                       0                    0.25                    0.75                       0                    0.25                       1                       0                    0.25                       0                    0.25                    0.25                    0.25                    0.25                    0.25                     0.5                    0.25                    0.25                    0.75                    0.25                    0.25                       1                    0.25                    0.25                       0                     0.5                    0.25                    0.25                     0.5                    0.25                     0.5                     0.5                    0.25                    0.75                     0.5                    0.25                       1                     0.5                    0.25                       0                    0.75                    0.25                    0.25                    0.75                    0.25                     0.5                    0.75                    0.25                    0.75                    0.75                    0.25                       1                    0.75                    0.25                       0                       1                    0.25                    0.25                       1                    0.25                     0.5                       1                    0.25                    0.75                       1                    0.25                       1                       1                    0.25                       0                       0                     0.5                    0.25                       0                     0.5                     0.5                       0                     0.5                    0.75                       0                     0.5                       1                       0                     0.5                       0                    0.25                     0.5                    0.25                    0.25                     0.5                     0.5                    0.25                     0.5                    0.75                    0.25                     0.5                       1                    0.25                     0.5                       0                     0.5                     0.5                    0.25                     0.5                     0.5                     0.5                     0.5                     0.5                    0.75                     0.5                     0.5                       1                     0.5                     0.5                       0                    0.75                     0.5                    0.25                    0.75                     0.5                     0.5                    0.75                     0.5                    0.75                    0.75                     0.5                       1                    0.75                     0.5                       0                       1                     0.5                    0.25                       1                     0.5                     0.5                       1                     0.5                    0.75                       1                     0.5                       1                       1                     0.5                       0                       0                    0.75                    0.25                       0                    0.75                     0.5                       0                    0.75                    0.75                       0                    0.75                       1                       0                    0.75                       0                    0.25                    0.75                    0.25                    0.25                    0.75                     0.5                    0.25                    0.75                    0.75                    0.25                    0.75                       1                    0.25                    0.75                       0                     0.5                    0.75                    0.25                     0.5                    0.75                     0.5                     0.5                    0.75                    0.75                     0.5                    0.75                       1                     0.5                    0.75                       0                    0.75                    0.75                    0.25                    0.75                    0.75                     0.5                    0.75                    0.75                    0.75                    0.75                    0.75                       1                    0.75                    0.75                       0                       1                    0.75                    0.25                       1                    0.75                     0.5                       1                    0.75                    0.75                       1                    0.75                       1                       1                    0.75                       0                       0                       1                    0.25                       0                       1                     0.5                       0                       1                    0.75                       0                       1                       1                       0                       1                       0                    0.25                       1                    0.25                    0.25                       1                     0.5                    0.25                       1                    0.75                    0.25                       1                       1                    0.25                       1                       0                     0.5                       1                    0.25                     0.5                       1                     0.5                     0.5                       1                    0.75                     0.5                       1                       1                     0.5                       1                       0                    0.75                       1                    0.25                    0.75                       1                     0.5                    0.75                       1                    0.75                    0.75                       1                       1                    0.75                       1                       0                       1                       1                    0.25                       1                       1                     0.5                       1                       1                    0.75                       1                       1                       1                       1                       1 </DataArray>
</Points>
<CellData Scalars="scalars">
<DataArray type="Float64" Name="L (layer)" Format="ascii"> 1  1  1  1  1  1  1  1  1  1  1  1  1  1  1  1  1  1  1  1  1  1  1  1  1  1  1  1  1  1  1  1  1  1  1  1  1  1  1  1  1  1  1  1  1  1  1  1  1  1  1  1  1  1  1  1  1  1  1  1  1  1  1  1  1  1  1  1  1  1  1  1  1  1  1  1  1  1  1  1  1  1  1  1  1  1  1  1  1  1  1  1  1  1  1  1  2  2  2  2  2  2  2  2  2  2  2  2  2  2  2  2  2  2  2  2  2  2  2  2  2  2  2  2  2  2  2  2  2  2  2  2  2  2  2  2  2  2  2  2  2  2  2  2  2  2  2  2  2  2  2  2  2  2  2  2  2  2  2  2  2  2  2  2  2  2  2  2  2  2  2  2  2  2  2  2  2  2  2  2  2  2  2  2  2  2  2  2  2  2  2  2  3  3  3  3  3  3  3  3  3  3  3  3  3  3  3  3  3  3  3  3  3  3  3  3  3  3  3  3  3  3  3  3  3  3  3  3  3  3  3  3  3  3  3  3  3  3  3  3  3  3  3  3  3  3  3  3  3  3  3  3  3  3  3  3  3  3  3  3  3  3  3  3  3  3  3  3  3  3  3  3  3  3  3  3  3  3  3  3  3  3  3  3  3  3  3  3  4  4  4  4  4  4  4  4  4  4  4  4  4  4  4  4  4  4  4  4  4  4  4  4  4  4  4  4  4  4  4  4  4  4  4  4  4  4  4  4  4  4  4  4  4  4  4  4  4  4  4  4  4  4  4  4  4  4  4  4  4  4  4  4  4  4  4  4  4  4  4  4  4  4  4  4  4  4  4  4  4  4  4  4  4  4  4  4  4  4  4  4  4  4  4  4 </DataArray>
</CellData>
<PointData Scalars="scalars">
<DataArray type="Int64" Name="v_bdry" Format="ascii"> 1  19  19  19  2  1  19  19  19  2  1  19  19  19  2  1  19  19  19  2  1  21  21  21  2  1  18  18  18  2  1  0  0  0  2  1  0  0  0  2  1  0  0  0  2  1  21  21  21  2  1  18  18  18  2  1  0  0  0  2  1  0  0  0  2  1  0  0  0  2  1  21  21  21  2  1  18  18  18  2  1  0  0  0  2  1  0  0  0  2  1  0  0  0  2  1  21  21  21  2  1  22  22  22  2  1  22  22  22  2  1  22  22  22  2  1  22  22  22  2  1  22  22  22  2 </DataArray>
<DataArray type="Float64" Name="ele" Format="ascii"> 0.000000e+00  0.000000e+00  0.000000e+00  0.000000e+00  0.000000e+00  0.000000e+00  0.000000e+00  0.000000e+00  0.000000e+00  0.000000e+00  0.000000e+00  0.000000e+00  0.000000e+00  0.000000e+00  0.000000e+00  0.000000e+00  0.000000e+00  0.000000e+00  0.000000e+00  0.000000e+00  0.000000e+00  0.000000e+00  0.000000e+00  0.000000e+00  0.000000e+00  0.000000e+00  0.000000e+00  0.000000e+00  0.000000e+00  0.000000e+00  0.000000e+00  0.000000e+00  0.000000e+00  0.000000e+00  0.000000e+00  0.000000e+00  0.000000e+00  0.000000e+00  0.000000e+00  0.000000e+00  0.000000e+00  0.000000e+00  0.000000e+00  0.000000e+00  0.000000e+00  0.000000e+00  0.000000e+00  0.000000e+00  0.000000e+00  0.000000e+00  0.000000e+00  0.000000e+00  0.000000e+00  0.000000e+00  0.000000e+00  0.000000e+00  0.000000e+00  0.000000e+00  0.000000e+00  0.000000e+00  0.000000e+00  0.000000e+00  0.000000e+00  0.000000e+00  0.000000e+00  0.000000e+00  0.000000e+00  0.000000e+00  0.000000e+00  0.000000e+00  0.000000e+00  0.000000e+00  0.000000e+00  0.000000e+00  0.000000e+00  0.000000e+00  0.000000e+00  0.000000e+00  0.000000e+00  0.000000e+00  0.000000e+00  0.000000e+00  0.000000e+00  0.000000e+00  0.000000e+00  0.000000e+00  0.000000e+00  0.000000e+00  0.000000e+00  0.000000e+00  0.000000e+00  0.000000e+00  0.000000e+00  0.000000e+00  0.000000e+00  0.000000e+00  0.000000e+00  0.000000e+00  0.000000e+00  0.000000e+00  0.000000e+00  0.000000e+00  0.000000e+00  0.000000e+00  0.000000e+00  0.000000e+00  0.000000e+00  0.000000e+00  0.000000e+00  0.000000e+00  0.000000e+00  0.000000e+00  0.000000e+00  0.000000e+00  0.000000e+00  0.000000e+00  0.000000e+00  0.000000e+00  0.000000e+00  0.000000e+00  0.000000e+00  0.000000e+00  0.000000e+00  0.000000e+00  0.000000e+00 </DataArray>
</PointData>
<Cells>
<DataArray type="Int64" Name="offsets" Format="ascii"> 4  8  12  16  20  24  28  32  36  40  44  48  52  56  60  64  68  72  76  80  84  88  92  96  100  104  108  112  116  120  124  128  132  136  140  144  148  152  156  160  164  168  172  176  180  184  188  192  196  200  204  208  212  216  220  224  228  232  236  240  244  248  252  256  260  264  268  272  276  280  284  288  292  296  300  304  308  312  316  320  324  328  332  336  340  344  348  352  356  360  364  368  372  376  380  384  388  392  396  400  404  408  412  416  420  424  428  432  436  440  444  448  452  456  460  464  468  472  476  480  484  488  492  496  500  504  508  512  516  520  524  528  532  536  540  544  548  552  556  560  564  568  572  576  580  584  588  592  596  600  604  608  612  616  620  624  628  632  636  640  644  648  652  656  660  664  668  672  676  680  684  688  692  696  700  704  708  712  716  720  724  728  732  736  740  744  748  752  756  760  764  768  772  776  780  784  788  792  796  800  804  808  812  816  820  824  828  832  836  840  844  848  852  856  860  864  868  872  876  880  884  888  892  896  900  904  908  912  916  920  924  928  932  936  940  944  948  952  956  960  964  968  972  976  980  984  988  992  996  1000  1004  1008  1012  1016  1020  1024  1028  1032  1036  1040  1044  1048  1052  1056  1060  1064  1068  1072  1076  1080  1084  1088  1092  1096  1100  1104  1108  1112  1116  1120  1124  1128  1132  1136  1140  1144  1148  1152  1156  1160  1164  1168  1172  1176  1180  1184  1188  1192  1196  1200  1204  1208  1212  1216  1220  1224  1228  1232  1236  1240  1244  1248  1252  1256  1260  1264  1268  1272  1276  1280  1284  1288  1292  1296  1300  1304  1308  1312  1316  1320  1324  1328  1332  1336  1340  1344  1348  1352  1356  1360  1364  1368  1372  1376  1380  1384  1388  1392  1396  1400  1404  1408  1412  1416  1420  1424  1428  1432  1436  1440  1444  1448  1452  1456  1460  1464  1468  1472  1476  1480  1484  1488  1492  1496  1500  1504  1508  1512  1516  1520  1524  1528  1532  1536 </DataArray>
<DataArray type="Int64" Name="connectivity" Format="ascii">
0 25 30 31 0 25 26 31 0 5 30 31 0 5 6 31 0 1 26 31 0 1 6 31 2 27 32 31 2 27 26 31 2 7 32 31 2 7 6 31 2 1 26 31 2 1 6 31 2 27 32 33 2 27 28 33 2 7 32 33 2 7 8 33 2 3 28 33 2 3 8 33 4 29 34 33 4 29 28 33 4 9 34 33 4 9 8 33 4 3 28 33 4 3 8 33 10 35 36 31 10 35 30 31 10 11 36 31 10 11 6 31 10 5 30 31 10 5 6 31 31 36 37 12 31 36 11 12 31 32 37 12 31 32 7 12 31 6 11 12 31 6 7 12 12 37 38 33 12 37 32 33 12 13 38 33 12 13 8 33 12 7 32 33 12 7 8 33 33 38 39 14 33 38 13 14 33 34 39 14 33 34 9 14 33 8 13 14 33 8 9 14 10 35 40 41 10 35 36 41 10 15 40 41 10 15 16 41 10 11 36 41 10 11 16 41 12 37 42 41 12 37 36 41 12 17 42 41 12 17 16 41 12 11 36 41 12 11 16 41 12 37 42 43 12 37 38 43 12 17 42 43 12 17 18 43 12 13 38 43 12 13 18 43 14 39 44 43 14 39 38 43 14 19 44 43 14 19 18 43 14 13 38 43 14 13 18 43 20 45 46 41 20 45 40 41 20 21 46 41 20 21 16 41 20 15 40 41 20 15 16 41 41 46 47 22 41 46 21 22 41 42 47 22 41 42 17 22 41 16 21 22 41 16 17 22 22 47 48 43 22 47 42 43 22 23 48 43 22 23 18 43 22 17 42 43 22 17 18 43 43 48 49 24 43 48 23 24 43 44 49 24 43 44 19 24 43 18 23 24 43 18 19 24 50 55 56 31 50 55 30 31 50 51 56 31 50 51 26 31 50 25 30 31 50 25 26 31 31 56 57 52 31 56 51 52 31 32 57 52 31 32 27 52 31 26 51 52 31 26 27 52 52 57 58 33 52 57 32 33 52 53 58 33 52 53 28 33 52 27 32 33 52 27 28 33 33 58 59 54 33 58 53 54 33 34 59 54 33 34 29 54 33 28 53 54 33 28 29 54 31 56 61 60 31 56 55 60 31 36 61 60 31 36 35 60 31 30 55 60 31 30 35 60 31 56 61 62 31 56 57 62 31 36 61 62 31 36 37 62 31 32 57 62 31 32 37 62 33 58 63 62 33 58 57 62 33 38 63 62 33 38 37 62 33 32 57 62 33 32 37 62 33 58 63 64 33 58 59 64 33 38 63 64 33 38 39 64 33 34 59 64 33 34 39 64 60 65 66 41 60 65 40 41 60 61 66 41 60 61 36 41 60 35 40 41 60 35 36 41 41 66 67 62 41 66 61 62 41 42 67 62 41 42 37 62 41 36 61 62 41 36 37 62 62 67 68 43 62 67 42 43 62 63 68 43 62 63 38 43 62 37 42 43 62 37 38 43 43 68 69 64 43 68 63 64 43 44 69 64 43 44 39 64 43 38 63 64 43 38 39 64 41 66 71 70 41 66 65 70 41 46 71 70 41 46 45 70 41 40 65 70 41 40 45 70 41 66 71 72 41 66 67 72 41 46 71 72 41 46 47 72 41 42 67 72 41 42 47 72 43 68 73 72 43 68 67 72 43 48 73 72 43 48 47 72 43 42 67 72 43 42 47 72 43 68 73 74 43 68 69 74 43 48 73 74 43 48 49 74 43 44 69 74 43 44 49 74 50 75 80 81 50 75 76 81 50 55 80 81 50 55 56 81 50 51 76 81 50 51 56 81 52 77 82 81 52 77 76 81 52 57 82 81 52 57 56 81 52 51 76 81 52 51 56 81 52 77 82 83 52 77 78 83 52 57 82 83 52 57 58 83 52 53 78 83 52 53 58 83 54 79 84 83 54 79 78 83 54 59 84 83 54 59 58 83 54 53 78 83 54 53 58 83 60 85 86 81 60 85 80 81 60 61 86 81 60 61 56 81 60 55 80 81 60 55 56 81 81 86 87 62 81 86 61 62 81 82 87 62 81 82 57 62 81 56 61 62 81 56 57 62 62 87 88 83 62 87 82 83 62 63 88 83 62 63 58 83 62 57 82 83 62 57 58 83 83 88 89 64 83 88 63 64 83 84 89 64 83 84 59 64 83 58 63 64 83 58 59 64 60 85 90 91 60 85 86 91 60 65 90 91 60 65 66 91 60 61 86 91 60 61 66 91 62 87 92 91 62 87 86 91 62 67 92 91 62 67 66 91 62 61 86 91 62 61 66 91 62 87 92 93 62 87 88 93 62 67 92 93 62 67 68 93 62 63 88 93 62 63 68 93 64 89 94 93 64 89 88 93 64 69 94 93 64 69 68 93 64 63 88 93 64 63 68 93 70 95 96 91 70 95 90 91 70 71 96 91 70 71 66 91 70 65 90 91 70 65 66 91 91 96 97 72 91 96 71 72 91 92 97 72 91 92 67 72 91 66 71 72 91 66 67 72 72 97 98 93 72 97 92 93 72 73 98 93 72 73 68 93 72 67 92 93 72 67 68 93 93 98 99 74 93 98 73 74 93 94 99 74 93 94 69 74 93 68 73 74 93 68 69 74 100 105 106 81 100 105 80 81 100 101 106 81 100 101 76 81 100 75 80 81 100 75 76 81 81 106 107 102 81 106 101 102 81 82 107 102 81 82 77 102 81 76 101 102 81 76 77 102 102 107 108 83 102 107 82 83 102 103 108 83 102 103 78 83 102 77 82 83 102 77 78 83 83 108 109 104 83 108 103 104 83 84 109 104 83 84 79 104 83 78 103 104 83 78 79 104 81 106 111 110 81 106 105 110 81 86 111 110 81 86 85 110 81 80 105 110 81 80 85 110 81 106 111 112 81 106 107 112 81 86 111 112 81 86 87 112 81 82 107 112 81 82 87 112 83 108 113 112 83 108 107 112 83 88 113 112 83 88 87 112 83 82 107 112 83 82 87 112 83 108 113 114 83 108 109 114 83 88 113 114 83 88 89 114 83 84 109 114 83 84 89 114 110 115 116 91 110 115 90 91 110 111 116 91 110 111 86 91 110 85 90 91 110 85 86 91 91 116 117 112 91 116 111 112 91 92 117 112 91 92 87 112 91 86 111 112 91 86 87 112 112 117 118 93 112 117 92 93 112 113 118 93 112 113 88 93 112 87 92 93 112 87 88 93 93 118 119 114 93 118 113 114 93 94 119 114 93 94 89 114 93 88 113 114 93 88 89 114 91 116 121 120 91 116 115 120 91 96 121 120 91 96 95 120 91 90 115 120 91 90 95 120 91 116 121 122 91 116 117 122 91 96 121 122 91 96 97 122 91 92 117 122 91 92 97 122 93 118 123 122 93 118 117 122 93 98 123 122 93 98 97 122 93 92 117 122 93 92 97 122 93 118 123 124 93 118 119 124 93 98 123 124 93 98 99 124 93 94 119 124 93 94 99 124 </DataArray>
<DataArray type="Int64" Name="types" Format="ascii"> 10  10  10  10  10  10  10  10  10  10  10  10  10  10  10  10  10  10  10  10  10  10  10  10  10  10  10  10  10  10  10  10  10  10  10  10  10  10  10  10  10  10  10  10  10  10  10  10  10  10  10  10  10  10  10  10  10  10  10  10  10  10  10  10  10  10  10  10  10  10  10  10  10  10  10  10  10  10  10  10  10  10  10  10  10  10  10  10  10  10  10  10  10  10  10  10  10  10  10  10  10  10  10  10  10  10  10  10  10  10  10  10  10  10  10  10  10  10  10  10  10  10  10  10  10  10  10  10  10  10  10  10  10  10  10  10  10  10  10  10  10  10  10  10  10  10  10  10  10  10  10  10  10  10  10  10  10  10  10  10  10  10  10  10  10  10  10  10  10  10  10  10  10  10  10  10  10  10  10  10  10  10  10  10  10  10  10  10  10  10  10  10  10  10  10  10  10  10  10  10  10  10  10  10  10  10  10  10  10  10  10  10  10  10  10  10  10  10  10  10  10  10  10  10  10  10  10  10  10  10  10  10  10  10  10  10  10  10  10  10  10  10  10  10  10  10  10  10  10  10  10  10  10  10  10  10  10  10  10  10  10  10  10  10  10  10  10  10  10  10  10  10  10  10  10  10  10  10  10  10  10  10  10  10  10  10  10  10  10  10  10  10  10  10  10  10  10  10  10  10  10  10  10  10  10  10  10  10  10  10  10  10  10  10  10  10  10  10  10  10  10  10  10  10  10  10  10  10  10  10  10  10  10  10  10  10  10  10  10  10  10  10  10  10  10  10  10  10  10  10  10  10  10  10  10  10  10  10  10  10  10  10  10  10  10  10  10  10  10  10  10  10  10  10  10  10  10  10  10  10  10  10  10  10 </DataArray>
</Cells>
</Piece>
</UnstructuredGrid>
</VTKFile>
