<VTKFile type="UnstructuredGrid" version="0.1" byte_order="LittleEndian">
<UnstructuredGrid>
<Piece NumberOfPoints="289" NumberOfCells="512">
<Points>
<DataArray type="Float64" NumberOfComponents="3" Format="ascii">0.00000000 0.00000000 0.00000000 0.06250000 0.00000000 0.00000000 0.12500000 0.00000000 0.00000000 0.18750000 0.00000000 0.00000000 0.25000000 0.00000000 0.00000000 0.31250000 0.00000000 0.00000000 0.37500000 0.00000000 0.00000000 0.43750000 0.00000000 0.00000000 0.50000000 0.00000000 0.00000000 0.56250000 0.00000000 0.00000000 0.62500000 0.00000000 0.00000000 0.68750000 0.00000000 0.00000000 0.75000000 0.00000000 0.00000000 0.81250000 0.00000000 0.00000000 0.87500000 0.00000000 0.00000000 0.93750000 0.00000000 0.00000000 1.00000000 0.00000000 0.00000000 0.00000000 0.06250000 0.00000000 0.06250000 0.06250000 0.00000000 0.12500000 0.06250000 0.00000000 0.18750000 0.06250000 0.00000000 0.25000000 0.06250000 0.00000000 0.31250000 0.06250000 0.00000000 0.37500000 0.06250000 0.00000000 0.43750000 0.06250000 0.00000000 0.50000000 0.06250000 0.00000000 0.56250000 0.06250000 0.00000000 0.62500000 0.06250000 0.00000000 0.68750000 0.06250000 0.00000000 0.75000000 0.06250000 0.00000000 0.81250000 0.06250000 0.00000000 0.87500000 0.06250000 0.00000000 0.93750000 0.06250000 0.00000000 1.00000000 0.06250000 0.00000000 0.00000000 0.12500000 0.00000000 0.06250000 0.12500000 0.00000000 0.12500000 0.12500000 0.00000000 0.18750000 0.12500000 0.00000000 0.25000000 0.12500000 0.00000000 0.31250000 0.12500000 0.00000000 0.37500000 0.12500000 0.00000000 0.43750000 0.12500000 0.00000000 0.50000000 0.12500000 0.00000000 0.56250000 0.12500000 0.00000000 0.62500000 0.12500000 0.00000000 0.68750000 0.12500000 0.00000000 0.75000000 0.12500000 0.00000000 0.81250000 0.12500000 0.00000000 0.87500000 0.12500000 0.00000000 0.93750000 0.12500000 0.00000000 1.00000000 0.12500000 0.00000000 0.00000000 0.18750000 0.00000000 0.06250000 0.18750000 0.00000000 0.12500000 0.18750000 0.00000000 0.18750000 0.18750000 0.00000000 0.25000000 0.18750000 0.00000000 0.31250000 0.18750000 0.00000000 0.37500000 0.18750000 0.00000000 0.43750000 0.18750000 0.00000000 0.50000000 0.18750000 0.00000000 0.56250000 0.18750000 0.00000000 0.62500000 0.18750000 0.00000000 0.68750000 0.18750000 0.00000000 0.75000000 0.18750000 0.00000000 0.81250000 0.18750000 0.00000000 0.87500000 0.18750000 0.00000000 0.93750000 0.18750000 0.00000000 1.00000000 0.18750000 0.00000000 0.00000000 0.25000000 0.00000000 0.06250000 0.25000000 0.00000000 0.12500000 0.25000000 0.00000000 0.18750000 0.25000000 0.00000000 0.25000000 0.25000000 0.00000000 0.31250000 0.25000000 0.00000000 0.37500000 0.25000000 0.00000000 0.43750000 0.25000000 0.00000000 0.50000000 0.25000000 0.00000000 0.56250000 0.25000000 0.00000000 0.62500000 0.25000000 0.00000000 0.68750000 0.25000000 0.00000000 0.75000000 0.25000000 0.00000000 0.81250000 0.25000000 0.00000000 0.87500000 0.25000000 0.00000000 0.93750000 0.25000000 0.00000000 1.00000000 0.25000000 0.00000000 0.00000000 0.31250000 0.00000000 0.06250000 0.31250000 0.00000000 0.12500000 0.31250000 0.00000000 0.18750000 0.31250000 0.00000000 0.25000000 0.31250000 0.00000000 0.31250000 0.31250000 0.00000000 0.37500000 0.31250000 0.00000000 0.43750000 0.31250000 0.00000000 0.50000000 0.31250000 0.00000000 0.56250000 0.31250000 0.00000000 0.62500000 0.31250000 0.00000000 0.68750000 0.31250000 0.00000000 0.75000000 0.31250000 0.00000000 0.81250000 0.31250000 0.00000000 0.87500000 0.31250000 0.00000000 0.93750000 0.31250000 0.00000000 1.00000000 0.31250000 0.00000000 0.00000000 0.37500000 0.00000000 0.06250000 0.37500000 0.00000000 0.12500000 0.37500000 0.00000000 0.18750000 0.37500000 0.00000000 0.25000000 0.37500000 0.00000000 0.31250000 0.37500000 0.00000000 0.37500000 0.37500000 0.00000000 0.43750000 0.37500000 0.00000000 0.50000000 0.37500000 0.00000000 0.56250000 0.37500000 0.00000000 0.62500000 0.37500000 0.00000000 0.68750000 0.37500000 0.00000000 0.75000000 0.37500000 0.00000000 0.81250000 0.37500000 0.00000000 0.87500000 0.37500000 0.00000000 0.93750000 0.37500000 0.00000000 1.00000000 0.37500000 0.00000000 0.00000000 0.43750000 0.00000000 0.06250000 0.43750000 0.00000000 0.12500000 0.43750000 0.00000000 0.18750000 0.43750000 0.00000000 0.25000000 0.43750000 0.00000000 0.31250000 0.43750000 0.00000000 0.37500000 0.43750000 0.00000000 0.43750000 0.43750000 0.00000000 0.50000000 0.43750000 0.00000000 0.56250000 0.43750000 0.00000000 0.62500000 0.43750000 0.00000000 0.68750000 0.43750000 0.00000000 0.75000000 0.43750000 0.00000000 0.81250000 0.43750000 0.00000000 0.87500000 0.43750000 0.00000000 0.93750000 0.43750000 0.00000000 1.00000000 0.43750000 0.00000000 0.00000000 0.50000000 0.00000000 0.06250000 0.50000000 0.00000000 0.12500000 0.50000000 0.00000000 0.18750000 0.50000000 0.00000000 0.25000000 0.50000000 0.00000000 0.31250000 0.50000000 0.00000000 0.37500000 0.50000000 0.00000000 0.43750000 0.50000000 0.00000000 0.50000000 0.50000000 0.00000000 0.56250000 0.50000000 0.00000000 0.62500000 0.50000000 0.00000000 0.68750000 0.50000000 0.00000000 0.75000000 0.50000000 0.00000000 0.81250000 0.50000000 0.00000000 0.87500000 0.50000000 0.00000000 0.93750000 0.50000000 0.00000000 1.00000000 0.50000000 0.00000000 0.00000000 0.56250000 0.00000000 0.06250000 0.56250000 0.00000000 0.12500000 0.56250000 0.00000000 0.18750000 0.56250000 0.00000000 0.25000000 0.56250000 0.00000000 0.31250000 0.56250000 0.00000000 0.37500000 0.56250000 0.00000000 0.43750000 0.56250000 0.00000000 0.50000000 0.56250000 0.00000000 0.56250000 0.56250000 0.00000000 0.62500000 0.56250000 0.00000000 0.68750000 0.56250000 0.00000000 0.75000000 0.56250000 0.00000000 0.81250000 0.56250000 0.00000000 0.87500000 0.56250000 0.00000000 0.93750000 0.56250000 0.00000000 1.00000000 0.56250000 0.00000000 0.00000000 0.62500000 0.00000000 0.06250000 0.62500000 0.00000000 0.12500000 0.62500000 0.00000000 0.18750000 0.62500000 0.00000000 0.25000000 0.62500000 0.00000000 0.31250000 0.62500000 0.00000000 0.37500000 0.62500000 0.00000000 0.43750000 0.62500000 0.00000000 0.50000000 0.62500000 0.00000000 0.56250000 0.62500000 0.00000000 0.62500000 0.62500000 0.00000000 0.68750000 0.62500000 0.00000000 0.75000000 0.62500000 0.00000000 0.81250000 0.62500000 0.00000000 0.87500000 0.62500000 0.00000000 0.93750000 0.62500000 0.00000000 1.00000000 0.62500000 0.00000000 0.00000000 0.68750000 0.00000000 0.06250000 0.68750000 0.00000000 0.12500000 0.68750000 0.00000000 0.18750000 0.68750000 0.00000000 0.25000000 0.68750000 0.00000000 0.31250000 0.68750000 0.00000000 0.37500000 0.68750000 0.00000000 0.43750000 0.68750000 0.00000000 0.50000000 0.68750000 0.00000000 0.56250000 0.68750000 0.00000000 0.62500000 0.68750000 0.00000000 0.68750000 0.68750000 0.00000000 0.75000000 0.68750000 0.00000000 0.81250000 0.68750000 0.00000000 0.87500000 0.68750000 0.00000000 0.93750000 0.68750000 0.00000000 1.00000000 0.68750000 0.00000000 0.00000000 0.75000000 0.00000000 0.06250000 0.75000000 0.00000000 0.12500000 0.75000000 0.00000000 0.18750000 0.75000000 0.00000000 0.25000000 0.75000000 0.00000000 0.31250000 0.75000000 0.00000000 0.37500000 0.75000000 0.00000000 0.43750000 0.75000000 0.00000000 0.50000000 0.75000000 0.00000000 0.56250000 0.75000000 0.00000000 0.62500000 0.75000000 0.00000000 0.68750000 0.75000000 0.00000000 0.75000000 0.75000000 0.00000000 0.81250000 0.75000000 0.00000000 0.87500000 0.75000000 0.00000000 0.93750000 0.75000000 0.00000000 1.00000000 0.75000000 0.00000000 0.00000000 0.81250000 0.00000000 0.06250000 0.81250000 0.00000000 0.12500000 0.81250000 0.00000000 0.18750000 0.81250000 0.00000000 0.25000000 0.81250000 0.00000000 0.31250000 0.81250000 0.00000000 0.37500000 0.81250000 0.00000000 0.43750000 0.81250000 0.00000000 0.50000000 0.81250000 0.00000000 0.56250000 0.81250000 0.00000000 0.62500000 0.81250000 0.00000000 0.68750000 0.81250000 0.00000000 0.75000000 0.81250000 0.00000000 0.81250000 0.81250000 0.00000000 0.87500000 0.81250000 0.00000000 0.93750000 0.81250000 0.00000000 1.00000000 0.81250000 0.00000000 0.00000000 0.87500000 0.00000000 0.06250000 0.87500000 0.00000000 0.12500000 0.87500000 0.00000000 0.18750000 0.87500000 0.00000000 0.25000000 0.87500000 0.00000000 0.31250000 0.87500000 0.00000000 0.37500000 0.87500000 0.00000000 0.43750000 0.87500000 0.00000000 0.50000000 0.87500000 0.00000000 0.56250000 0.87500000 0.00000000 0.62500000 0.87500000 0.00000000 0.68750000 0.87500000 0.00000000 0.75000000 0.87500000 0.00000000 0.81250000 0.87500000 0.00000000 0.87500000 0.87500000 0.00000000 0.93750000 0.87500000 0.00000000 1.00000000 0.87500000 0.00000000 0.00000000 0.93750000 0.00000000 0.06250000 0.93750000 0.00000000 0.12500000 0.93750000 0.00000000 0.18750000 0.93750000 0.00000000 0.25000000 0.93750000 0.00000000 0.31250000 0.93750000 0.00000000 0.37500000 0.93750000 0.00000000 0.43750000 0.93750000 0.00000000 0.50000000 0.93750000 0.00000000 0.56250000 0.93750000 0.00000000 0.62500000 0.93750000 0.00000000 0.68750000 0.93750000 0.00000000 0.75000000 0.93750000 0.00000000 0.81250000 0.93750000 0.00000000 0.87500000 0.93750000 0.00000000 0.93750000 0.93750000 0.00000000 1.00000000 0.93750000 0.00000000 0.00000000 1.00000000 0.00000000 0.06250000 1.00000000 0.00000000 0.12500000 1.00000000 0.00000000 0.18750000 1.00000000 0.00000000 0.25000000 1.00000000 0.00000000 0.31250000 1.00000000 0.00000000 0.37500000 1.00000000 0.00000000 0.43750000 1.00000000 0.00000000 0.50000000 1.00000000 0.00000000 0.56250000 1.00000000 0.00000000 0.62500000 1.00000000 0.00000000 0.68750000 1.00000000 0.00000000 0.75000000 1.00000000 0.00000000 0.81250000 1.00000000 0.00000000 0.87500000 1.00000000 0.00000000 0.93750000 1.00000000 0.00000000 1.00000000 1.00000000 0.00000000 </DataArray>
</Points>
<CellData Scalars="scalars">
<DataArray type="Float64" Name="L (layer)" Format="ascii"> 1  1  1  1  1  1  1  1  1  1  1  1  1  1  1  1  1  1  1  1  1  1  1  1  1  1  1  1  1  1  1  1  1  1  1  1  1  1  1  1  1  1  1  1  1  1  1  1  1  1  1  1  1  1  1  1  1  1  1  1  1  1  1  1  1  1  1  1  1  1  1  1  1  1  1  1  1  1  1  1  1  1  1  1  1  1  1  1  1  1  1  1  1  1  1  1  1  1  1  1  1  1  1  1  1  1  1  1  1  1  1  1  1  1  1  1  1  1  1  1  1  1  1  1  1  1  1  1  1  1  1  1  1  1  1  1  1  1  1  1  1  1  1  1  1  1  1  1  1  1  1  1  1  1  1  1  1  1  1  1  1  1  1  1  1  1  1  1  1  1  1  1  1  1  1  1  1  1  1  1  1  1  1  1  1  1  1  1  1  1  1  1  1  1  1  1  1  1  1  1  1  1  1  1  1  1  1  1  1  1  1  1  1  1  1  1  1  1  1  1  1  1  1  1  1  1  1  1  1  1  1  1  1  1  1  1  1  1  1  1  1  1  1  1  1  1  1  1  1  1  1  1  1  1  1  1  1  1  1  1  1  1  1  1  1  1  1  1  1  1  1  1  1  1  1  1  1  1  1  1  1  1  1  1  1  1  1  1  1  1  1  1  1  1  1  1  1  1  1  1  1  1  1  1  1  1  1  1  1  1  1  1  1  1  1  1  1  1  1  1  1  1  1  1  1  1  1  1  1  1  1  1  1  1  1  1  1  1  1  1  1  1  1  1  1  1  1  1  1  1  1  1  1  1  1  1  1  1  1  1  1  1  1  1  1  1  1  1  1  1  1  1  1  1  1  1  1  1  1  1  1  1  1  1  1  1  1  1  1  1  1  1  1  1  1  1  1  1  1  1  1  1  1  1  1  1  1  1  1  1  1  1  1  1  1  1  1  1  1  1  1  1  1  1  1  1  1  1  1  1  1  1  1  1  1  1  1  1  1  1  1  1  1  1  1  1  1  1  1  1  1  1  1  1  1  1  1  1  1  1  1  1  1  1  1  1  1  1  1  1  1  1  1  1  1  1  1  1  1  1  1  1  1  1  1  1  1  1  1  1  1  1  1  1  1  1  1  1  1  1  1  1  1  1  1  1  1  1  1  1  1  1 </DataArray>
</CellData>
<PointData Scalars="scalars">
<DataArray type="Int64" Name="v_bdry" Format="ascii"> 1  1  1  1  1  1  1  1  1  1  1  1  1  1  1  1  1  1  0  0  0  0  0  0  0  0  0  0  0  0  0  0  0  1  1  0  0  0  0  0  0  0  0  0  0  0  0  0  0  0  1  1  0  0  0  0  0  0  0  0  0  0  0  0  0  0  0  1  1  0  0  0  0  0  0  0  0  0  0  0  0  0  0  0  1  1  0  0  0  0  0  0  0  0  0  0  0  0  0  0  0  1  1  0  0  0  0  0  0  0  0  0  0  0  0  0  0  0  1  1  0  0  0  0  0  0  0  0  0  0  0  0  0  0  0  1  1  0  0  0  0  0  0  0  0  0  0  0  0  0  0  0  1  1  0  0  0  0  0  0  0  0  0  0  0  0  0  0  0  1  1  0  0  0  0  0  0  0  0  0  0  0  0  0  0  0  1  1  0  0  0  0  0  0  0  0  0  0  0  0  0  0  0  1  1  0  0  0  0  0  0  0  0  0  0  0  0  0  0  0  1  1  0  0  0  0  0  0  0  0  0  0  0  0  0  0  0  1  1  0  0  0  0  0  0  0  0  0  0  0  0  0  0  0  1  1  0  0  0  0  0  0  0  0  0  0  0  0  0  0  0  1  1  1  1  1  1  1  1  1  1  1  1  1  1  1  1  1  1 </DataArray>
<DataArray type="Float64" Name="ele" Format="ascii"> 0.000000e+00  0.000000e+00  0.000000e+00  0.000000e+00  0.000000e+00  0.000000e+00  0.000000e+00  0.000000e+00  0.000000e+00  0.000000e+00  0.000000e+00  0.000000e+00  0.000000e+00  0.000000e+00  0.000000e+00  0.000000e+00  0.000000e+00  0.000000e+00  0.000000e+00  0.000000e+00  0.000000e+00  0.000000e+00  0.000000e+00  0.000000e+00  0.000000e+00  0.000000e+00  0.000000e+00  0.000000e+00  0.000000e+00  0.000000e+00  0.000000e+00  0.000000e+00  0.000000e+00  0.000000e+00  0.000000e+00  0.000000e+00  0.000000e+00  0.000000e+00  0.000000e+00  0.000000e+00  0.000000e+00  0.000000e+00  0.000000e+00  0.000000e+00  0.000000e+00  0.000000e+00  0.000000e+00  0.000000e+00  0.000000e+00  0.000000e+00  0.000000e+00  0.000000e+00  0.000000e+00  0.000000e+00  0.000000e+00  0.000000e+00  0.000000e+00  0.000000e+00  0.000000e+00  0.000000e+00  0.000000e+00  0.000000e+00  0.000000e+00  0.000000e+00  0.000000e+00  0.000000e+00  0.000000e+00  0.000000e+00  0.000000e+00  0.000000e+00  0.000000e+00  0.000000e+00  0.000000e+00  0.000000e+00  0.000000e+00  0.000000e+00  0.000000e+00  0.000000e+00  0.000000e+00  0.000000e+00  0.000000e+00  0.000000e+00  0.000000e+00  0.000000e+00  0.000000e+00  0.000000e+00  0.000000e+00  0.000000e+00  0.000000e+00  0.000000e+00  0.000000e+00  0.000000e+00  0.000000e+00  0.000000e+00  0.000000e+00  0.000000e+00  0.000000e+00  0.000000e+00  0.000000e+00  0.000000e+00  0.000000e+00  0.000000e+00  0.000000e+00  0.000000e+00  0.000000e+00  0.000000e+00  0.000000e+00  0.000000e+00  0.000000e+00  0.000000e+00  0.000000e+00  0.000000e+00  0.000000e+00  0.000000e+00  0.000000e+00  0.000000e+00  0.000000e+00  0.000000e+00  0.000000e+00  0.000000e+00  0.000000e+00  0.000000e+00  0.000000e+00  0.000000e+00  0.000000e+00  0.000000e+00  0.000000e+00  0.000000e+00  0.000000e+00  0.000000e+00  0.000000e+00  0.000000e+00  0.000000e+00  0.000000e+00  0.000000e+00  0.000000e+00  0.000000e+00  0.000000e+00  0.000000e+00  0.000000e+00  0.000000e+00  0.000000e+00  0.000000e+00  0.000000e+00  0.000000e+00  0.000000e+00  0.000000e+00  0.000000e+00  0.000000e+00  0.000000e+00  0.000000e+00  0.000000e+00  0.000000e+00  0.000000e+00  0.000000e+00  0.000000e+00  0.000000e+00  0.000000e+00  0.000000e+00  0.000000e+00  0.000000e+00  0.000000e+00  0.000000e+00  0.000000e+00  0.000000e+00  0.000000e+00  0.000000e+00  0.000000e+00  0.000000e+00  0.000000e+00  0.000000e+00  0.000000e+00  0.000000e+00  0.000000e+00  0.000000e+00  0.000000e+00  0.000000e+00  0.000000e+00  0.000000e+00  0.000000e+00  0.000000e+00  0.000000e+00  0.000000e+00  0.000000e+00  0.000000e+00  0.000000e+00  0.000000e+00  0.000000e+00  0.000000e+00  0.000000e+00  0.000000e+00  0.000000e+00  0.000000e+00  0.000000e+00  0.000000e+00  0.000000e+00  0.000000e+00  0.000000e+00  0.000000e+00  0.000000e+00  0.000000e+00  0.000000e+00  0.000000e+00  0.000000e+00  0.000000e+00  0.000000e+00  0.000000e+00  0.000000e+00  0.000000e+00  0.000000e+00  0.000000e+00  0.000000e+00  0.000000e+00  0.000000e+00  0.000000e+00  0.000000e+00  0.000000e+00  0.000000e+00  0.000000e+00  0.000000e+00  0.000000e+00  0.000000e+00  0.000000e+00  0.000000e+00  0.000000e+00  0.000000e+00  0.000000e+00  0.000000e+00  0.000000e+00  0.000000e+00  0.000000e+00  0.000000e+00  0.000000e+00  0.000000e+00  0.000000e+00  0.000000e+00  0.000000e+00  0.000000e+00  0.000000e+00  0.000000e+00  0.000000e+00  0.000000e+00  0.000000e+00  0.000000e+00  0.000000e+00  0.000000e+00  0.000000e+00  0.000000e+00  0.000000e+00  0.000000e+00  0.000000e+00  0.000000e+00  0.000000e+00  0.000000e+00  0.000000e+00  0.000000e+00  0.000000e+00  0.000000e+00  0.000000e+00  0.000000e+00  0.000000e+00  0.000000e+00  0.000000e+00  0.000000e+00  0.000000e+00  0.000000e+00  0.000000e+00  0.000000e+00  0.000000e+00  0.000000e+00  0.000000e+00  0.000000e+00  0.000000e+00  0.000000e+00  0.000000e+00  0.000000e+00  0.000000e+00  0.000000e+00  0.000000e+00  0.000000e+00  0.000000e+00  0.000000e+00  0.000000e+00  0.000000e+00  0.000000e+00  0.000000e+00  0.000000e+00  0.000000e+00  0.000000e+00 </DataArray>
</PointData>
<Cells>
<DataArray type="Int64" Name="offsets" Format="ascii"> 3  6  9  12  15  18  21  24  27  30  33  36  39  42  45  48  51  54  57  60  63  66  69  72  75  78  81  84  87  90  93  96  99  102  105  108  111  114  117  120  123  126  129  132  135  138  141  144  147  150  153  156  159  162  165  168  171  174  177  180  183  186  189  192  195  198  201  204  207  210  213  216  219  222  225  228  231  234  237  240  243  246  249  252  255  258  261  264  267  270  273  276  279  282  285  288  291  294  297  300  303  306  309  312  315  318  321  324  327  330  333  336  339  342  345  348  351  354  357  360  363  366  369  372  375  378  381  384  387  390  393  396  399  402  405  408  411  414  417  420  423  426  429  432  435  438  441  444  447  450  453  456  459  462  465  468  471  474  477  480  483  486  489  492  495  498  501  504  507  510  513  516  519  522  525  528  531  534  537  540  543  546  549  552  555  558  561  564  567  570  573  576  579  582  585  588  591  594  597  600  603  606  609  612  615  618  621  624  627  630  633  636  639  642  645  648  651  654  657  660  663  666  669  672  675  678  681  684  687  690  693  696  699  702  705  708  711  714  717  720  723  726  729  732  735  738  741  744  747  750  753  756  759  762  765  768  771  774  777  780  783  786  789  792  795  798  801  804  807  810  813  816  819  822  825  828  831  834  837  840  843  846  849  852  855  858  861  864  867  870  873  876  879  882  885  888  891  894  897  900  903  906  909  912  915  918  921  924  927  930  933  936  939  942  945  948  951  954  957  960  963  966  969  972  975  978  981  984  987  990  993  996  999  1002  1005  1008  1011  1014  1017  1020  1023  1026  1029  1032  1035  1038  1041  1044  1047  1050  1053  1056  1059  1062  1065  1068  1071  1074  1077  1080  1083  1086  1089  1092  1095  1098  1101  1104  1107  1110  1113  1116  1119  1122  1125  1128  1131  1134  1137  1140  1143  1146  1149  1152  1155  1158  1161  1164  1167  1170  1173  1176  1179  1182  1185  1188  1191  1194  1197  1200  1203  1206  1209  1212  1215  1218  1221  1224  1227  1230  1233  1236  1239  1242  1245  1248  1251  1254  1257  1260  1263  1266  1269  1272  1275  1278  1281  1284  1287  1290  1293  1296  1299  1302  1305  1308  1311  1314  1317  1320  1323  1326  1329  1332  1335  1338  1341  1344  1347  1350  1353  1356  1359  1362  1365  1368  1371  1374  1377  1380  1383  1386  1389  1392  1395  1398  1401  1404  1407  1410  1413  1416  1419  1422  1425  1428  1431  1434  1437  1440  1443  1446  1449  1452  1455  1458  1461  1464  1467  1470  1473  1476  1479  1482  1485  1488  1491  1494  1497  1500  1503  1506  1509  1512  1515  1518  1521  1524  1527  1530  1533  1536 </DataArray>
<DataArray type="Int64" Name="connectivity" Format="ascii">
17 18 0 1 18 0 1 18 19 1 2 19 20 2 19 20 2 3 20 21 3 4 21 3 4 21 22 4 5 22 23 5 22 23 5 6 23 24 6 7 24 6 7 24 25 7 8 25 26 8 25 26 8 9 26 27 9 10 27 9 10 27 28 10 11 28 29 11 28 29 11 12 29 30 12 13 30 12 13 30 31 13 14 31 32 14 31 32 14 15 32 33 15 16 33 15 17 34 35 17 18 35 36 18 35 36 18 19 36 37 19 20 37 19 20 37 38 20 21 38 39 21 38 39 21 22 39 40 22 23 40 22 23 40 41 23 24 41 42 24 41 42 24 25 42 43 25 26 43 25 26 43 44 26 27 44 45 27 44 45 27 28 45 46 28 29 46 28 29 46 47 29 30 47 48 30 47 48 30 31 48 49 31 32 49 31 32 49 50 32 33 50 52 34 51 52 34 35 52 53 35 36 53 35 36 53 54 36 37 54 55 37 54 55 37 38 55 56 38 39 56 38 39 56 57 39 40 57 58 40 57 58 40 41 58 59 41 42 59 41 42 59 60 42 43 60 61 43 60 61 43 44 61 62 44 45 62 44 45 62 63 45 46 63 64 46 63 64 46 47 64 65 47 48 65 47 48 65 66 48 49 66 67 49 66 67 49 50 68 69 51 52 69 51 52 69 70 52 53 70 71 53 70 71 53 54 71 72 54 55 72 54 55 72 73 55 56 73 74 56 73 74 56 57 74 75 57 58 75 57 58 75 76 58 59 76 77 59 76 77 59 60 77 78 60 61 78 60 61 78 79 61 62 79 80 62 79 80 62 63 80 81 63 64 81 63 64 81 82 64 65 82 83 65 82 83 65 66 83 84 66 67 84 66 68 85 86 68 69 86 87 69 86 87 69 70 87 88 70 71 88 70 71 88 89 71 72 89 90 72 89 90 72 73 90 91 73 74 91 73 74 91 92 74 75 92 93 75 92 93 75 76 93 94 76 77 94 76 77 94 95 77 78 95 96 78 95 96 78 79 96 97 79 80 97 79 80 97 98 80 81 98 99 81 98 99 81 82 99 100 82 83 100 82 83 100 101 83 84 101 103 85 102 103 85 86 103 104 86 87 104 86 87 104 105 87 88 105 106 88 105 106 88 89 106 107 89 90 107 89 90 107 108 90 91 108 109 91 108 109 91 92 109 110 92 93 110 92 93 110 111 93 94 111 112 94 111 112 94 95 112 113 95 96 113 95 96 113 114 96 97 114 115 97 114 115 97 98 115 116 98 99 116 98 99 116 117 99 100 117 118 100 117 118 100 101 119 120 102 103 120 102 103 120 121 103 104 121 122 104 121 122 104 105 122 123 105 106 123 105 106 123 124 106 107 124 125 107 124 125 107 108 125 126 108 109 126 108 109 126 127 109 110 127 128 110 127 128 110 111 128 129 111 112 129 111 112 129 130 112 113 130 131 113 130 131 113 114 131 132 114 115 132 114 115 132 133 115 116 133 134 116 133 134 116 117 134 135 117 118 135 117 119 136 137 119 120 137 138 120 137 138 120 121 138 139 121 122 139 121 122 139 140 122 123 140 141 123 140 141 123 124 141 142 124 125 142 124 125 142 143 125 126 143 144 126 143 144 126 127 144 145 127 128 145 127 128 145 146 128 129 146 147 129 146 147 129 130 147 148 130 131 148 130 131 148 149 131 132 149 150 132 149 150 132 133 150 151 133 134 151 133 134 151 152 134 135 152 154 136 153 154 136 137 154 155 137 138 155 137 138 155 156 138 139 156 157 139 156 157 139 140 157 158 140 141 158 140 141 158 159 141 142 159 160 142 159 160 142 143 160 161 143 144 161 143 144 161 162 144 145 162 163 145 162 163 145 146 163 164 146 147 164 146 147 164 165 147 148 165 166 148 165 166 148 149 166 167 149 150 167 149 150 167 168 150 151 168 169 151 168 169 151 152 170 171 153 154 171 153 154 171 172 154 155 172 173 155 172 173 155 156 173 174 156 157 174 156 157 174 175 157 158 175 176 158 175 176 158 159 176 177 159 160 177 159 160 177 178 160 161 178 179 161 178 179 161 162 179 180 162 163 180 162 163 180 181 163 164 181 182 164 181 182 164 165 182 183 165 166 183 165 166 183 184 166 167 184 185 167 184 185 167 168 185 186 168 169 186 168 170 187 188 170 171 188 189 171 188 189 171 172 189 190 172 173 190 172 173 190 191 173 174 191 192 174 191 192 174 175 192 193 175 176 193 175 176 193 194 176 177 194 195 177 194 195 177 178 195 196 178 179 196 178 179 196 197 179 180 197 198 180 197 198 180 181 198 199 181 182 199 181 182 199 200 182 183 200 201 183 200 201 183 184 201 202 184 185 202 184 185 202 203 185 186 203 205 187 204 205 187 188 205 206 188 189 206 188 189 206 207 189 190 207 208 190 207 208 190 191 208 209 191 192 209 191 192 209 210 192 193 210 211 193 210 211 193 194 211 212 194 195 212 194 195 212 213 195 196 213 214 196 213 214 196 197 214 215 197 198 215 197 198 215 216 198 199 216 217 199 216 217 199 200 217 218 200 201 218 200 201 218 219 201 202 219 220 202 219 220 202 203 221 222 204 205 222 204 205 222 223 205 206 223 224 206 223 224 206 207 224 225 207 208 225 207 208 225 226 208 209 226 227 209 226 227 209 210 227 228 210 211 228 210 211 228 229 211 212 229 230 212 229 230 212 213 230 231 213 214 231 213 214 231 232 214 215 232 233 215 232 233 215 216 233 234 216 217 234 216 217 234 235 217 218 235 236 218 235 236 218 219 236 237 219 220 237 219 221 238 239 221 222 239 240 222 239 240 222 223 240 241 223 224 241 223 224 241 242 224 225 242 243 225 242 243 225 226 243 244 226 227 244 226 227 244 245 227 228 245 246 228 245 246 228 229 246 247 229 230 247 229 230 247 248 230 231 248 249 231 248 249 231 232 249 250 232 233 250 232 233 250 251 233 234 251 252 234 251 252 234 235 252 253 235 236 253 235 236 253 254 236 237 254 256 238 255 256 238 239 256 257 239 240 257 239 240 257 258 240 241 258 259 241 258 259 241 242 259 260 242 243 260 242 243 260 261 243 244 261 262 244 261 262 244 245 262 263 245 246 263 245 246 263 264 246 247 264 265 247 264 265 247 248 265 266 248 249 266 248 249 266 267 249 250 267 268 250 267 268 250 251 268 269 251 252 269 251 252 269 270 252 253 270 271 253 270 271 253 254 272 273 255 256 273 255 256 273 274 256 257 274 275 257 274 275 257 258 275 276 258 259 276 258 259 276 277 259 260 277 278 260 277 278 260 261 278 279 261 262 279 261 262 279 280 262 263 280 281 263 280 281 263 264 281 282 264 265 282 264 265 282 283 265 266 283 284 266 283 284 266 267 284 285 267 268 285 267 268 285 286 268 269 286 287 269 286 287 269 270 287 288 270 271 288 270 </DataArray>
<DataArray type="Int64" Name="types" Format="ascii"> 5  5  5  5  5  5  5  5  5  5  5  5  5  5  5  5  5  5  5  5  5  5  5  5  5  5  5  5  5  5  5  5  5  5  5  5  5  5  5  5  5  5  5  5  5  5  5  5  5  5  5  5  5  5  5  5  5  5  5  5  5  5  5  5  5  5  5  5  5  5  5  5  5  5  5  5  5  5  5  5  5  5  5  5  5  5  5  5  5  5  5  5  5  5  5  5  5  5  5  5  5  5  5  5  5  5  5  5  5  5  5  5  5  5  5  5  5  5  5  5  5  5  5  5  5  5  5  5  5  5  5  5  5  5  5  5  5  5  5  5  5  5  5  5  5  5  5  5  5  5  5  5  5  5  5  5  5  5  5  5  5  5  5  5  5  5  5  5  5  5  5  5  5  5  5  5  5  5  5  5  5  5  5  5  5  5  5  5  5  5  5  5  5  5  5  5  5  5  5  5  5  5  5  5  5  5  5  5  5  5  5  5  5  5  5  5  5  5  5  5  5  5  5  5  5  5  5  5  5  5  5  5  5  5  5  5  5  5  5  5  5  5  5  5  5  5  5  5  5  5  5  5  5  5  5  5  5  5  5  5  5  5  5  5  5  5  5  5  5  5  5  5  5  5  5  5  5  5  5  5  5  5  5  5  5  5  5  5  5  5  5  5  5  5  5  5  5  5  5  5  5  5  5  5  5  5  5  5  5  5  5  5  5  5  5  5  5  5  5  5  5  5  5  5  5  5  5  5  5  5  5  5  5  5  5  5  5  5  5  5  5  5  5  5  5  5  5  5  5  5  5  5  5  5  5  5  5  5  5  5  5  5  5  5  5  5  5  5  5  5  5  5  5  5  5  5  5  5  5  5  5  5  5  5  5  5  5  5  5  5  5  5  5  5  5  5  5  5  5  5  5  5  5  5  5  5  5  5  5  5  5  5  5  5  5  5  5  5  5  5  5  5  5  5  5  5  5  5  5  5  5  5  5  5  5  5  5  5  5  5  5  5  5  5  5  5  5  5  5  5  5  5  5  5  5  5  5  5  5  5  5  5  5  5  5  5  5  5  5  5  5  5  5  5  5  5  5  5  5  5  5  5  5  5  5  5  5  5  5  5  5  5  5  5  5  5  5  5  5  5  5  5  5  5  5  5  5  5  5  5  5  5 </DataArray>
</Cells>
</Piece>
</UnstructuredGrid>
</VTKFile>
