<VTKFile type="UnstructuredGrid" version="0.1" byte_order="LittleEndian">
<UnstructuredGrid>
<Piece NumberOfPoints="78" NumberOfCells="126">
<Points>
<DataArray type="Float64" NumberOfComponents="3" Format="ascii">                      0                      -1 0                       0                       0 0                       1                      -1 0                       1                       0 0                      -1                      -1 0                      -1                       0 0                      -1                       1 0                       0                       1 0                     0.5                    -0.5 0                    -0.5                    -0.5 0                    -0.5                     0.5 0                     0.5                       0 0                       0                    -0.5 0                    -0.5                       0 0                       0                     0.5 0                    0.25                   -0.25 0                   -0.25                   -0.25 0                   -0.25                    0.25 0                    0.25                       0 0                       0                   -0.25 0                   -0.25                       0 0                       0                    0.25 0                   0.125                  -0.125 0                  -0.125                  -0.125 0                  -0.125                   0.125 0                   0.125                       0 0                       0                  -0.125 0                  -0.125                       0 0                       0                   0.125 0                  0.0625                 -0.0625 0                 -0.0625                 -0.0625 0                 -0.0625                  0.0625 0                  0.0625                       0 0                       0                 -0.0625 0                 -0.0625                       0 0                       0                  0.0625 0                 0.03125                -0.03125 0                -0.03125                -0.03125 0                -0.03125                 0.03125 0                 0.03125                       0 0                       0                -0.03125 0                -0.03125                       0 0                       0                 0.03125 0                0.015625               -0.015625 0               -0.015625               -0.015625 0               -0.015625                0.015625 0                0.015625                       0 0                       0               -0.015625 0               -0.015625                       0 0                       0                0.015625 0               0.0078125              -0.0078125 0              -0.0078125              -0.0078125 0              -0.0078125               0.0078125 0               0.0078125                       0 0                       0              -0.0078125 0              -0.0078125                       0 0                       0               0.0078125 0              0.00390625             -0.00390625 0             -0.00390625             -0.00390625 0             -0.00390625              0.00390625 0              0.00390625                       0 0                       0             -0.00390625 0             -0.00390625                       0 0                       0              0.00390625 0             0.001953125            -0.001953125 0            -0.001953125            -0.001953125 0            -0.001953125             0.001953125 0             0.001953125                       0 0                       0            -0.001953125 0            -0.001953125                       0 0                       0             0.001953125 0            0.0009765625           -0.0009765625 0           -0.0009765625           -0.0009765625 0           -0.0009765625            0.0009765625 0            0.0009765625                       0 0                       0           -0.0009765625 0           -0.0009765625                       0 0                       0            0.0009765625 0 </DataArray>
</Points>
<CellData Scalars="scalars">
<DataArray type="Float64" Name="L (layer)" Format="ascii"> 1  1  3  3  5  5  1  1  3  3  5  5  1  1  3  3  5  5  1  1  3  3  5  5  1  1  3  3  5  5  1  1  3  3  5  5  1  1  3  3  5  5  1  1  3  3  5  5  1  1  3  3  5  5  1  1  3  3  5  5  1  1  3  3  5  5  1  1  3  3  5  5  1  1  3  3  5  5  1  1  3  3  5  5  1  1  3  3  5  5  1  1  3  3  5  5  1  1  3  3  5  5  1  1  3  3  5  5  1  1  3  3  5  5  1  1  1  1  3  3  3  3  5  5  5  5 </DataArray>
</CellData>
<PointData Scalars="scalars">
<DataArray type="Int64" Name="v_bdry" Format="ascii"> 1  1  1  1  1  2  2  1  1  2  2  1  1  2  1  1  2  2  1  1  2  1  1  2  2  1  1  2  1  1  2  2  1  1  2  1  1  2  2  1  1  2  1  1  2  2  1  1  2  1  1  2  2  1  1  2  1  1  2  2  1  1  2  1  1  2  2  1  1  2  1  1  2  2  1  1  2  1 </DataArray>
<DataArray type="Float64" Name="ele" Format="ascii"> 0.000000e+00  0.000000e+00  0.000000e+00  0.000000e+00  0.000000e+00  0.000000e+00  0.000000e+00  0.000000e+00  0.000000e+00  0.000000e+00  0.000000e+00  0.000000e+00  0.000000e+00  0.000000e+00  0.000000e+00  0.000000e+00  0.000000e+00  0.000000e+00  0.000000e+00  0.000000e+00  0.000000e+00  0.000000e+00  0.000000e+00  0.000000e+00  0.000000e+00  0.000000e+00  0.000000e+00  0.000000e+00  0.000000e+00  0.000000e+00  0.000000e+00  0.000000e+00  0.000000e+00  0.000000e+00  0.000000e+00  0.000000e+00  0.000000e+00  0.000000e+00  0.000000e+00  0.000000e+00  0.000000e+00  0.000000e+00  0.000000e+00  0.000000e+00  0.000000e+00  0.000000e+00  0.000000e+00  0.000000e+00  0.000000e+00  0.000000e+00  0.000000e+00  0.000000e+00  0.000000e+00  0.000000e+00  0.000000e+00  0.000000e+00  0.000000e+00  0.000000e+00  0.000000e+00  0.000000e+00  0.000000e+00  0.000000e+00  0.000000e+00  0.000000e+00  0.000000e+00  0.000000e+00  0.000000e+00  0.000000e+00  0.000000e+00  0.000000e+00  0.000000e+00  0.000000e+00  0.000000e+00  0.000000e+00  0.000000e+00  0.000000e+00  0.000000e+00  0.000000e+00 </DataArray>
</PointData>
<Cells>
<DataArray type="Int64" Name="offsets" Format="ascii"> 3  6  9  12  15  18  21  24  27  30  33  36  39  42  45  48  51  54  57  60  63  66  69  72  75  78  81  84  87  90  93  96  99  102  105  108  111  114  117  120  123  126  129  132  135  138  141  144  147  150  153  156  159  162  165  168  171  174  177  180  183  186  189  192  195  198  201  204  207  210  213  216  219  222  225  228  231  234  237  240  243  246  249  252  255  258  261  264  267  270  273  276  279  282  285  288  291  294  297  300  303  306  309  312  315  318  321  324  327  330  333  336  339  342  345  348  351  354  357  360  363  366  369  372  375  378 </DataArray>
<DataArray type="Int64" Name="connectivity" Format="ascii">
3 8 2 0 8 2 5 9 4 0 9 4 5 10 6 7 10 6 3 11 8 0 12 8 0 12 9 5 13 9 5 13 10 7 14 10 8 15 11 8 15 12 9 16 12 9 16 13 10 17 13 10 17 14 11 18 15 12 19 15 12 19 16 13 20 16 13 20 17 14 21 17 15 22 18 15 22 19 16 23 19 16 23 20 17 24 20 17 24 21 18 25 22 19 26 22 19 26 23 20 27 23 20 27 24 21 28 24 22 29 25 22 29 26 23 30 26 23 30 27 24 31 27 24 31 28 25 32 29 26 33 29 26 33 30 27 34 30 27 34 31 28 35 31 29 36 32 29 36 33 30 37 33 30 37 34 31 38 34 31 38 35 32 39 36 33 40 36 33 40 37 34 41 37 34 41 38 35 42 38 36 43 39 36 43 40 37 44 40 37 44 41 38 45 41 38 45 42 39 46 43 40 47 43 40 47 44 41 48 44 41 48 45 42 49 45 43 50 46 43 50 47 44 51 47 44 51 48 45 52 48 45 52 49 46 53 50 47 54 50 47 54 51 48 55 51 48 55 52 49 56 52 50 57 53 50 57 54 51 58 54 51 58 55 52 59 55 52 59 56 53 60 57 54 61 57 54 61 58 55 62 58 55 62 59 56 63 59 57 64 60 57 64 61 58 65 61 58 65 62 59 66 62 59 66 63 60 67 64 61 68 64 61 68 65 62 69 65 62 69 66 63 70 66 64 71 67 64 71 68 65 72 68 65 72 69 66 73 69 66 73 70 1 74 71 67 74 71 1 75 71 68 75 71 1 75 72 68 75 72 1 76 72 69 76 72 1 76 73 69 76 73 1 77 73 70 77 73 </DataArray>
<DataArray type="Int64" Name="types" Format="ascii"> 5  5  5  5  5  5  5  5  5  5  5  5  5  5  5  5  5  5  5  5  5  5  5  5  5  5  5  5  5  5  5  5  5  5  5  5  5  5  5  5  5  5  5  5  5  5  5  5  5  5  5  5  5  5  5  5  5  5  5  5  5  5  5  5  5  5  5  5  5  5  5  5  5  5  5  5  5  5  5  5  5  5  5  5  5  5  5  5  5  5  5  5  5  5  5  5  5  5  5  5  5  5  5  5  5  5  5  5  5  5  5  5  5  5  5  5  5  5  5  5  5  5  5  5  5  5 </DataArray>
</Cells>
</Piece>
</UnstructuredGrid>
</VTKFile>
