<VTKFile type="UnstructuredGrid" version="0.1" byte_order="LittleEndian">
<UnstructuredGrid>
<Piece NumberOfPoints="1089" NumberOfCells="2048">
<Points>
<DataArray type="Float64" NumberOfComponents="3" Format="ascii">  0.0000000000000000e+00  0.0000000000000000e+00  0.0000000000000000e+00   3.1250000000000000e-02  0.0000000000000000e+00  0.0000000000000000e+00   6.2500000000000000e-02  0.0000000000000000e+00  0.0000000000000000e+00   9.3750000000000000e-02  0.0000000000000000e+00  0.0000000000000000e+00   1.2500000000000000e-01  0.0000000000000000e+00  0.0000000000000000e+00   1.5625000000000000e-01  0.0000000000000000e+00  0.0000000000000000e+00   1.8750000000000000e-01  0.0000000000000000e+00  0.0000000000000000e+00   2.1875000000000000e-01  0.0000000000000000e+00  0.0000000000000000e+00   2.5000000000000000e-01  0.0000000000000000e+00  0.0000000000000000e+00   2.8125000000000000e-01  0.0000000000000000e+00  0.0000000000000000e+00   3.1250000000000000e-01  0.0000000000000000e+00  0.0000000000000000e+00   3.4375000000000000e-01  0.0000000000000000e+00  0.0000000000000000e+00   3.7500000000000000e-01  0.0000000000000000e+00  0.0000000000000000e+00   4.0625000000000000e-01  0.0000000000000000e+00  0.0000000000000000e+00   4.3750000000000000e-01  0.0000000000000000e+00  0.0000000000000000e+00   4.6875000000000000e-01  0.0000000000000000e+00  0.0000000000000000e+00   5.0000000000000000e-01  0.0000000000000000e+00  0.0000000000000000e+00   5.3125000000000000e-01  0.0000000000000000e+00  0.0000000000000000e+00   5.6250000000000000e-01  0.0000000000000000e+00  0.0000000000000000e+00   5.9375000000000000e-01  0.0000000000000000e+00  0.0000000000000000e+00   6.2500000000000000e-01  0.0000000000000000e+00  0.0000000000000000e+00   6.5625000000000000e-01  0.0000000000000000e+00  0.0000000000000000e+00   6.8750000000000000e-01  0.0000000000000000e+00  0.0000000000000000e+00   7.1875000000000000e-01  0.0000000000000000e+00  0.0000000000000000e+00   7.5000000000000000e-01  0.0000000000000000e+00  0.0000000000000000e+00   7.8125000000000000e-01  0.0000000000000000e+00  0.0000000000000000e+00   8.1250000000000000e-01  0.0000000000000000e+00  0.0000000000000000e+00   8.4375000000000000e-01  0.0000000000000000e+00  0.0000000000000000e+00   8.7500000000000000e-01  0.0000000000000000e+00  0.0000000000000000e+00   9.0625000000000000e-01  0.0000000000000000e+00  0.0000000000000000e+00   9.3750000000000000e-01  0.0000000000000000e+00  0.0000000000000000e+00   9.6875000000000000e-01  0.0000000000000000e+00  0.0000000000000000e+00   1.0000000000000000e+00  0.0000000000000000e+00  0.0000000000000000e+00   0.0000000000000000e+00  3.1250000000000000e-02  0.0000000000000000e+00   3.1250000000000000e-02  3.1250000000000000e-02  0.0000000000000000e+00   6.2500000000000000e-02  3.1250000000000000e-02  0.0000000000000000e+00   9.3750000000000000e-02  3.1250000000000000e-02  0.0000000000000000e+00   1.2500000000000000e-01  3.1250000000000000e-02  0.0000000000000000e+00   1.5625000000000000e-01  3.1250000000000000e-02  0.0000000000000000e+00   1.8750000000000000e-01  3.1250000000000000e-02  0.0000000000000000e+00   2.1875000000000000e-01  3.1250000000000000e-02  0.0000000000000000e+00   2.5000000000000000e-01  3.1250000000000000e-02  0.0000000000000000e+00   2.8125000000000000e-01  3.1250000000000000e-02  0.0000000000000000e+00   3.1250000000000000e-01  3.1250000000000000e-02  0.0000000000000000e+00   3.4375000000000000e-01  3.1250000000000000e-02  0.0000000000000000e+00   3.7500000000000000e-01  3.1250000000000000e-02  0.0000000000000000e+00   4.0625000000000000e-01  3.1250000000000000e-02  0.0000000000000000e+00   4.3750000000000000e-01  3.1250000000000000e-02  0.0000000000000000e+00   4.6875000000000000e-01  3.1250000000000000e-02  0.0000000000000000e+00   5.0000000000000000e-01  3.1250000000000000e-02  0.0000000000000000e+00   5.3125000000000000e-01  3.1250000000000000e-02  0.0000000000000000e+00   5.6250000000000000e-01  3.1250000000000000e-02  0.0000000000000000e+00   5.9375000000000000e-01  3.1250000000000000e-02  0.0000000000000000e+00   6.2500000000000000e-01  3.1250000000000000e-02  0.0000000000000000e+00   6.5625000000000000e-01  3.1250000000000000e-02  0.0000000000000000e+00   6.8750000000000000e-01  3.1250000000000000e-02  0.0000000000000000e+00   7.1875000000000000e-01  3.1250000000000000e-02  0.0000000000000000e+00   7.5000000000000000e-01  3.1250000000000000e-02  0.0000000000000000e+00   7.8125000000000000e-01  3.1250000000000000e-02  0.0000000000000000e+00   8.1250000000000000e-01  3.1250000000000000e-02  0.0000000000000000e+00   8.4375000000000000e-01  3.1250000000000000e-02  0.0000000000000000e+00   8.7500000000000000e-01  3.1250000000000000e-02  0.0000000000000000e+00   9.0625000000000000e-01  3.1250000000000000e-02  0.0000000000000000e+00   9.3750000000000000e-01  3.1250000000000000e-02  0.0000000000000000e+00   9.6875000000000000e-01  3.1250000000000000e-02  0.0000000000000000e+00   1.0000000000000000e+00  3.1250000000000000e-02  0.0000000000000000e+00   0.0000000000000000e+00  6.2500000000000000e-02  0.0000000000000000e+00   3.1250000000000000e-02  6.2500000000000000e-02  0.0000000000000000e+00   6.2500000000000000e-02  6.2500000000000000e-02  0.0000000000000000e+00   9.3750000000000000e-02  6.2500000000000000e-02  0.0000000000000000e+00   1.2500000000000000e-01  6.2500000000000000e-02  0.0000000000000000e+00   1.5625000000000000e-01  6.2500000000000000e-02  0.0000000000000000e+00   1.8750000000000000e-01  6.2500000000000000e-02  0.0000000000000000e+00   2.1875000000000000e-01  6.2500000000000000e-02  0.0000000000000000e+00   2.5000000000000000e-01  6.2500000000000000e-02  0.0000000000000000e+00   2.8125000000000000e-01  6.2500000000000000e-02  0.0000000000000000e+00   3.1250000000000000e-01  6.2500000000000000e-02  0.0000000000000000e+00   3.4375000000000000e-01  6.2500000000000000e-02  0.0000000000000000e+00   3.7500000000000000e-01  6.2500000000000000e-02  0.0000000000000000e+00   4.0625000000000000e-01  6.2500000000000000e-02  0.0000000000000000e+00   4.3750000000000000e-01  6.2500000000000000e-02  0.0000000000000000e+00   4.6875000000000000e-01  6.2500000000000000e-02  0.0000000000000000e+00   5.0000000000000000e-01  6.2500000000000000e-02  0.0000000000000000e+00   5.3125000000000000e-01  6.2500000000000000e-02  0.0000000000000000e+00   5.6250000000000000e-01  6.2500000000000000e-02  0.0000000000000000e+00   5.9375000000000000e-01  6.2500000000000000e-02  0.0000000000000000e+00   6.2500000000000000e-01  6.2500000000000000e-02  0.0000000000000000e+00   6.5625000000000000e-01  6.2500000000000000e-02  0.0000000000000000e+00   6.8750000000000000e-01  6.2500000000000000e-02  0.0000000000000000e+00   7.1875000000000000e-01  6.2500000000000000e-02  0.0000000000000000e+00   7.5000000000000000e-01  6.2500000000000000e-02  0.0000000000000000e+00   7.8125000000000000e-01  6.2500000000000000e-02  0.0000000000000000e+00   8.1250000000000000e-01  6.2500000000000000e-02  0.0000000000000000e+00   8.4375000000000000e-01  6.2500000000000000e-02  0.0000000000000000e+00   8.7500000000000000e-01  6.2500000000000000e-02  0.0000000000000000e+00   9.0625000000000000e-01  6.2500000000000000e-02  0.0000000000000000e+00   9.3750000000000000e-01  6.2500000000000000e-02  0.0000000000000000e+00   9.6875000000000000e-01  6.2500000000000000e-02  0.0000000000000000e+00   1.0000000000000000e+00  6.2500000000000000e-02  0.0000000000000000e+00   0.0000000000000000e+00  9.3750000000000000e-02  0.0000000000000000e+00   3.1250000000000000e-02  9.3750000000000000e-02  0.0000000000000000e+00   6.2500000000000000e-02  9.3750000000000000e-02  0.0000000000000000e+00   9.3750000000000000e-02  9.3750000000000000e-02  0.0000000000000000e+00   1.2500000000000000e-01  9.3750000000000000e-02  0.0000000000000000e+00   1.5625000000000000e-01  9.3750000000000000e-02  0.0000000000000000e+00   1.8750000000000000e-01  9.3750000000000000e-02  0.0000000000000000e+00   2.1875000000000000e-01  9.3750000000000000e-02  0.0000000000000000e+00   2.5000000000000000e-01  9.3750000000000000e-02  0.0000000000000000e+00   2.8125000000000000e-01  9.3750000000000000e-02  0.0000000000000000e+00   3.1250000000000000e-01  9.3750000000000000e-02  0.0000000000000000e+00   3.4375000000000000e-01  9.3750000000000000e-02  0.0000000000000000e+00   3.7500000000000000e-01  9.3750000000000000e-02  0.0000000000000000e+00   4.0625000000000000e-01  9.3750000000000000e-02  0.0000000000000000e+00   4.3750000000000000e-01  9.3750000000000000e-02  0.0000000000000000e+00   4.6875000000000000e-01  9.3750000000000000e-02  0.0000000000000000e+00   5.0000000000000000e-01  9.3750000000000000e-02  0.0000000000000000e+00   5.3125000000000000e-01  9.3750000000000000e-02  0.0000000000000000e+00   5.6250000000000000e-01  9.3750000000000000e-02  0.0000000000000000e+00   5.9375000000000000e-01  9.3750000000000000e-02  0.0000000000000000e+00   6.2500000000000000e-01  9.3750000000000000e-02  0.0000000000000000e+00   6.5625000000000000e-01  9.3750000000000000e-02  0.0000000000000000e+00   6.8750000000000000e-01  9.3750000000000000e-02  0.0000000000000000e+00   7.1875000000000000e-01  9.3750000000000000e-02  0.0000000000000000e+00   7.5000000000000000e-01  9.3750000000000000e-02  0.0000000000000000e+00   7.8125000000000000e-01  9.3750000000000000e-02  0.0000000000000000e+00   8.1250000000000000e-01  9.3750000000000000e-02  0.0000000000000000e+00   8.4375000000000000e-01  9.3750000000000000e-02  0.0000000000000000e+00   8.7500000000000000e-01  9.3750000000000000e-02  0.0000000000000000e+00   9.0625000000000000e-01  9.3750000000000000e-02  0.0000000000000000e+00   9.3750000000000000e-01  9.3750000000000000e-02  0.0000000000000000e+00   9.6875000000000000e-01  9.3750000000000000e-02  0.0000000000000000e+00   1.0000000000000000e+00  9.3750000000000000e-02  0.0000000000000000e+00   0.0000000000000000e+00  1.2500000000000000e-01  0.0000000000000000e+00   3.1250000000000000e-02  1.2500000000000000e-01  0.0000000000000000e+00  
[...]
<PointData Scalars="scalars">
<DataArray type="Float64" Name="Solution Component 0" Format="ascii">  0.0000000000000000e+00   0.0000000000000000e+00   0.0000000000000000e+00   0.0000000000000000e+00   0.0000000000000000e+00   0.0000000000000000e+00   0.0000000000000000e+00   0.0000000000000000e+00   0.0000000000000000e+00   0.0000000000000000e+00   0.0000000000000000e+00   0.0000000000000000e+00   0.0000000000000000e+00   0.0000000000000000e+00   0.0000000000000000e+00   0.0000000000000000e+00   0.0000000000000000e+00   0.0000000000000000e+00   0.0000000000000000e+00   0.0000000000000000e+00   0.0000000000000000e+00   0.0000000000000000e+00   0.0000000000000000e+00   0.0000000000000000e+00   0.0000000000000000e+00   0.0000000000000000e+00   0.0000000000000000e+00   0.0000000000000000e+00   0.0000000000000000e+00   0.0000000000000000e+00   0.0000000000000000e+00   0.0000000000000000e+00   0.0000000000000000e+00   0.0000000000000000e+00   2.9555944593896741e-03   1.1087830341303881e-02  -1.6714666382762191e-03  -1.5362572430431615e-02   4.8537921750199386e-03   4.0556519572686207e-03  -9.9212042220159277e-03   8.3600640968577115e-03   2.2793985727504164e-02   2.7075579582223796e-02   2.3454253509225281e-02   1.5617273304765806e-02   6.5635243092082261e-03  -1.7786203409175022e-03  -8.3855469058811364e-03  -1.2861112243156027e-02  -1.5192606143224022e-02  -1.5573954765754234e-02  -1.4291383399115004e-02  -1.1656454432312547e-02  -7.9716253878420445e-03  -3.5169186815137399e-03   1.4498235839197401e-03   6.6831536189112519e-03   1.1931705504237097e-02   1.6909364464976710e-02   2.1250320293666344e-02   2.4437051869682935e-02   2.5680838222967194e-02   2.3714879002007406e-02   1.6412247684840564e-02  -1.8647583479529953e-16   0.0000000000000000e+00  -1.8487481072441032e-02   2.0909919927978391e-02  -3.9828617663810436e-03  -3.2287424177682017e-02   9.5795897386574871e-03   1.2225295189160936e-02  -9.7055433295547330e-03   1.9171691448424930e-02   4.2966588354302115e-02   4.9857119406494746e-02   4.2904965692773869e-02   2.8335983858550993e-02   1.1505915962149088e-02  -4.0256446349742911e-03  -1.6318363173173263e-02  -2.4594190775488640e-02  -2.8802946267409511e-02  -2.9295750217217781e-02  -2.6608745186366890e-02  -2.1334043000032991e-02  -1.4052112917060513e-02  -5.3048551558821525e-03   4.4046710492693314e-03   1.4593521742143765e-02   2.4763044151911887e-02   3.4342153281509018e-02   4.2599193615581760e-02   4.8502496205032240e-02   5.0495157331064286e-02   4.6125906022313083e-02   3.1441042484305196e-02  -7.1497597180412466e-16   0.0000000000000000e+00  -3.9789965407029913e-02   2.9666954067968848e-02  -6.5334131526608606e-03  -4.8259511801191236e-02   1.4826465676264991e-02   2.2692100846280164e-02  -6.4627617994627929e-03   2.9811484032130346e-02   6.0272555766264418e-02   6.8728372753035435e-02   5.8690211672637035e-02   3.8310953253828224e-02   1.4844905982888585e-02  -6.7799041500416933e-03  -2.3827356763373730e-02  -3.5174666762468249e-02  -4.0728736685090312e-02  -4.0974513339269117e-02  -3.6670011922357075e-02  -2.8661492564764721e-02  -1.7785171465287162e-02  -4.8272462982105061e-03   9.4772546735165195e-03   2.4417554391848926e-02   3.9254792625382895e-02   5.3138841020022622e-02   6.4979423085901836e-02   7.3243994146233227e-02   7.5636132831499600e-02   6.8580054257717876e-02   4.6396135449021207e-02  -1.9335003452290455e-17   0.0000000000000000e+00  -6.0223935324598542e-02   3.7604076947545008e-02  -9.1075030784451630e-03  -6.3192609921481083e-02   2.0253135874866515e-02   3.3891866540709706e-02  -2.5327476754907589e-03   3.9413539264965346e-02   7.5027099850730916e-02   8.4462370321932975e-02   7.1601042040810359e-02   4.6187316381139099e-02   1.7060104888749796e-02  -9.6950605516920654e-03  -3.0659774438235903e-02  -4.4412050776651821e-02  -5.0821495493844814e-02  -5.0492567397376974e-02  -4.4383164440701110e-02  -3.3570704477572183e-02  -1.9126306073367721e-02  -2.0628742102448499e-03   1.6666926390102376e-02   3.6136161052656005e-02   5.5375802256043431e-02   7.3266597188078070e-02   8.8371738909950037e-02   9.8675526431699578e-02   1.0116988493190684e-01   9.1195189571511043e-02   6.1387486077309858e-02  -1.4465624549115528e-16   0.0000000000000000e+00  -7.9519322169934861e-02   4.4849325850262953e-02  -1.1641527110503489e-02  -7.7238054924939639e-02   2.5501648640410015e-02   4.4968751548485494e-02   1.3018896402508104e-03   4.7829834228364738e-02   8.7662955343640908e-02   9.7767032875618359e-02   8.2370646650111123e-02   5.2595996720580657e-02   1.8641413764950918e-02  -1.2416931589255727e-02  -3.6577318376130749e-02  -5.2163899306454181e-02  -5.9019358858527084e-02  -5.7858529591905107e-02  -4.9821114347480266e-02  -3.6195020246982963e-02  -1.8266344128187215e-02   2.7430781672220989e-03   2.5678335805645772e-02   4.9409811915449027e-02   7.2750854110259625e-02   9.4326187010746590e-02   1.1236827061095918e-01   1.2439965463678951e-01   1.2673113248376100e-01   1.1366185587324668e-01   7.6198567358813377e-02   5.7265305623224865e-17   0.0000000000000000e+00  -9.7566628381016346e-02   5.1450933570717214e-02  -1.4114979404841296e-02  -9.0457867894039423e-02   3.0370081956691410e-02   5.5517501150673290e-02   4.8212698889659655e-03   5.5145473214316613e-02   9.8547686121614617e-02   1.0915887846903054e-01   9.1531116611861724e-02   5.8000274319663807e-02   1.9946720413943256e-02  -1.4699506171867716e-02  -4.1438497344665259e-02  -5.8382079864440835e-02  -6.5357271231151717e-02  -6.3182428124247181e-02  -5.3163086230327283e-02  -3.6778314356116948e-02  -1.5509749284453795e-02   9.2298967180983616e-03   3.6099783550343656e-02   6.3782589204202808e-02   9.0888640060965489e-02   1.1580239564047565e-01   1.3644471801906180e-01   1.4990209089839690e-01   1.5184089711102938e-01   1.3557338295420754e-01   9.0559923654127947e-02   1.9315942248459125e-16   0.0000000000000000e+00  -1.1430205684139136e-01   5.7416355066915288e-02  -1.6508243691812804e-02  -1.0282171981525005e-01   3.4772563581002121e-02   6.5357580026476569e-02   8.0063142833136716e-03   6.1486887065240345e-02   1.0793695683479704e-01   1.1896534147480931e-01   9.9414580706580088e-02   6.2686391709738137e-02   2.1188646002431144e-02  -1.6413638605698912e-02  -4.5197122058095715e-02  -6.3098364029846976e-02  -6.9938926105679214e-02  -6.6634288094654048e-02  -5.4640621403621276e-02  -3.5609367274391665e-02  -1.1198363285536025e-02   1.7007227520327264e-02   4.7497771809400714e-02   7.8784474789041936e-02   1.0929097013126890e-01   1.3717951442117537e-01   1.6008164474125672e-01   1.7467800657861185e-01   1.7603456794485972e-01   1.5654389241484731e-01   1.0422682619775324e-01  -9.0115090938471462e-16   0.0000000000000000e+00  -1.2966575209685874e-01   6.2733864204638765e-02  -1.8794779134215324e-02  -1.1424591164354510e-01   3.8682490355865885e-02   7.4405111351591599e-02   1.0896784124531539e-02   6.6957020780343129e-02   1.1598373962277263e-01   1.2736729650247566e-01   1.0619911487993226e-01   6.6801774723648677e-02   2.2465204092357971e-02  -1.7520171008725952e-02  -4.7875605936410229e-02  -6.6395616123530982e-02  -7.2904789442979928e-02  -6.8408771805503435e-02  -5.4499083643231375e-02  -3.2980703142456304e-02  -5.6681170694392437e-03   2.5699951175365811e-02   5.9462963347702208e-02   9.3977958786407009e-02   1.2749967590176667e-01   1.5798824457470573e-01   1.8281100705946343e-01   1.9827727179256369e-01   1.9890333548013409e-01   1.7624029569840982e-01   1.1699390334272054e-01   1.9371839157308576e-16   0.0000000000000000e+00  -1.4359032067183808e-01   6.7383209395261046e-02  -2.0943799477965604e-02  -1.2462478512848905e-01   4.2096497953811249e-02   8.2611243585854241e-02   1.3537146947444491e-02   7.1621590544804867e-02   1.2276418993834132e-01   1.3444573050838543e-01   1.1195902541904058e-01   7.0400128854542277e-02   2.3797673508914444e-02  -1.8038042042148414e-02  -4.9537017648480862e-02  -6.8382103684109991e-02  -7.4407627422556730e-02  -6.8701443946168284e-02  -5.2974559050626868e-02  -2.9166233145344753e-02   7.7237875439959379e-04   3.4968419851699649e-02   7.1629041426584592e-02   1.0897536053315875e-01   1.4511227587592385e-01   1.7781960341816619e-01   2.0422811021294704e-01   2.2031397753520149e-01   2.2010024838268091e-01   1.9438347469604964e-01   1.2869169159875501e-01  -2.6033651819742970e-16   0.0000000000000000e+00  -1.5600126534276146e-01   7.1341081545739357e-02  -2.2924162080043352e-02  -1.3384997183538513e-01   4.5016835829193122e-02   8.9936426111147674e-02   1.5959245657748929e-02   7.5513847752084043e-02   1.2830398404790894e-01   1.4022034839607195e-01   1.1670596915256062e-01   7.3478996235833330e-02   2.5162326939068964e-02  -1.8018285148205533e-02  -5.0263750438968198e-02  -6.9173686633381692e-02  -7.4597328717934369e-02  -6.7695670098240929e-02  -5.0282542757715612e-02  -2.4411620018977460e-02   7.8498046070781258e-03   4.4514737021146798e-02   8.3677270687625524e-02   1.2344166136760543e-01   1.6178309375937280e-01   1.9632434969474014e-01   2.2398933447552297e-01   2.4046239279059006e-01   2.3933433430188608e-01   2.1074094395343956e-01   1.3917994266671027e-01   1.2589991781859242e-17   0.0000000000000000e+00  -1.6682135476999618e-01   7.4584306916767082e-02  -2.4707012837489432e-02  -1.4182079345832449e-01   4.7444621784750458e-02   9.6341982879370111e-02   1.8179855334956165e-02   7.8644316186199506e-02   1.3259975647782410e-01   1.4467785716761769e-01   1.2041855593036169e-01   7.6006762433109665e-02   2.6513010887006899e-02  -1.7526159931608554e-02  -5.0143845664037671e-02  -6.8883570278826814e-02  -7.3613384581475760e-02  -6.5557292784349824e-02  -4.6614454984809303e-02  -1.8932413577141243e-02   1.5326510085115664e-02   5.4081736049922370e-02   9.5334146341108636e-02   1.3709089659936818e-01   1.7721847638764787e-01   2.1320712354385352e-01   2.4180530950488513e-01   2.5844933269289783e-01   2.5636248845472148e-01   2.2511906471092483e-01   1.4834201084672827e-01   1.4930643241381655e-17   0.0000000000000000e+00  -1.7597562346537746e-01   7.7091998384537591e-02  -2.6267083700389899e-02  -1.4844934381961608e-01   4.9378478783137808e-02   1.0178917348979653e-01   2.0203487200270504e-02   8.1010272052917359e-02   1.3563481300721869e-01   1.4779125261646195e-01   1.2306205664713805e-01   7.7940362911566155e-02   2.7795557418475388e-02  -1.6630367205906698e-02  -4.9263577554834855e-02  -6.7617752266064590e-02  -7.1582660112093383e-02  -6.2434265510490861e-02  -4.2138782846466591e-02  -1.2916441949838793e-02   2.2997059829247754e-02   6.3448604219154700e-02   1.0636621379706762e-01   1.4968028075574341e-01   1.9117033857302873e-01   2.2821953908004330e-01   2.5743371368023465e-01   2.7404689354908263e-01   2.7098252860842753e-01   2.3735710862511469e-01   1.5608108578105276e-01  -9.7101866180416351e-18   0.0000000000000000e+00  -1.8339579155301738e-01   7.8847144413639894e-02  -2.7583091015093035e-02  -1.5366268752088522e-01   5.0815427982221592e-02   1.0624100048810309e-01   2.2026371449812891e-02   8.2603327129487342e-02   1.3738992815874060e-01   1.4953230538367454e-01   1.2460075879786332e-01   7.9236040517262712e-02   2.8956096627300906e-02  -1.5397443989500829e-02  -4.7704414831204196e-02  -6.5474203005204387e-02  -6.8620385999225583e-02  -5.8459073914903029e-02  -3.7004610269917727e-02  -6.5281957203751247e-03   3.0683194031499387e-02   7.2425346479201347e-02   1.1657416914851818e-01   1.6100406607652723e-01   2.0342989972538761e-01   2.4115392946975986e-01   2.7067318420597802e-01   2.8706673747929129e-01   2.8302815788861657e-01   2.4732334088715585e-01   1.6231797093255496e-01  -2.7936258198529906e-15   0.0000000000000000e+00  -1.8902378934338590e-01   7.9837823179378917e-02  -2.8637655993513523e-02  -1.5740361535971195e-01   5.1752477202503651e-02   1.0966465674510978e-01   2.3640095758420007e-02   8.3414949728424656e-02   1.3785043118996729e-01   1.4987930033569002e-01   1.2500529177063299e-01   7.9855375274934068e-02   2.9945260582953968e-02  -1.3889560382224119e-02  -4.5542725619105683e-02  -6.2544229961905465e-02  -6.4832872298463060e-02  -5.3752490479091752e-02  -3.1346138683400686e-02   8.6116309307963072e-05   3.8228426716054052e-02   8.0847193290795621e-02   1.2578720834184193e-01   1.7088795061933446e-01   2.1382226330034698e-01   2.5183821404471918e-01   2.8135860272427432e-01   2.9735595442300383e-01   2.9236559871000167e-01   2.5491265222420550e-01   1.6698990839864181e-01   1.5797506112789691e-16   0.0000000000000000e+00  -1.9281441942025840e-01   8.0058130431589464e-02  -2.9417020320609281e-02  -1.5963072788489990e-01   5.2188215778052084e-02   1.1203378610178495e-01   2.5034492092805682e-02   8.3440284255926811e-02   1.3701070597702594e-01   1.4882165208500625e-01   1.2425671637118110e-01   7.9768314868870580e-02   3.0719829091868708e-02  -1.2164363562564125e-02  -4.2851038481118042e-02  -5.8914969502441600e-02  -6.0320991779835922e-02  -4.8427801378991032e-02  -2.5287427034411350e-02   6.7935149958087719e-03   4.5492851549909577e-02   8.8569407101466421e-02   1.3385795583612442e-01   1.7918423608792358e-01   2.2220190274315887e-01   2.6013180934493046e-01   2.8935753175244816e-01   3.0479413028255181e-01   2.9889139963303790e-01   2.6004518643557423e-01   1.7005001566698885e-01   2.0672035180212449e-18   0.0000000000000000e+00  -1.9473729835692144e-01   7.9508880963082007e-02  -2.9910701029103523e-02  -1.6031822414917027e-01   5.2124165422254502e-02   1.1333030902290836e-01   2.6199809967304602e-02   8.2680750726834645e-02   1.3487701426373219e-01   1.4636258615609871e-01   1.2234866083818599e-01   7.8954431229887975e-02   3.1242903250084105e-02  -1.0275946582922746e-02  -3.9700090486141565e-02  -5.4672367537223598e-02  -5.5183902743173550e-02  -4.2595069321685150e-02  -1.8947001715326824e-02   1.3469466682912329e-02   5.2348332781894436e-02   9.5462575541535949e-02   1.4065796867082470e-01   1.8576763739690522e-01   2.2844886163531969e-01   2.6592229901849002e-01   2.9456742934637309e-01   3.0929117481528307e-01   3.0253092725811259e-01   2.6266550116485493e-01   1.7146701685020019e-01   2.4179811246925247e-16   0.0000000000000000e+00  -1.9477823541799727e-01   7.8198136468162482e-02  -3.0111146100828701e-02  -1.5945556254494436e-01   5.1565833891772141e-02   1.1354579748373289e-01   2.7128356718124136e-02   8.1145872799241098e-02   1.3146933681662851e-01   1.4252073411948829e-01   1.1928839060990722e-01   7.7403233643822011e-02   3.1483323043729701e-02  -8.2763601066496162e-03  -3.6161210125911288e-02  -4.9904310171888573e-02  -4.9522767908574329e-02  -3.6365269756843857e-02  -1.2442244818270626e-02   1.9993392964345894e-02   5.8674044209982866e-02   1.0140829216407034e-01   1.4607365535707215e-01   1.9053152317875341e-01   2.3246538954709464e-01   2.6912253124988572e-01   2.9691326697836529e-01   3.1078550756117163e-01   3.0323714513983357e-01   2.6274191806030039e-01   1.7122505251173117e-01   2.0672035180212449e-18   0.0000000000000000e+00  -1.9294019111412691e-01   7.6141611042116836e-02  -3.0013408823458224e-02  -1.5704706327706949e-01   5.0523486966682608e-02   1.1268244817881880e-01   2.7815797463631452e-02   7.8854708121608746e-02   1.2682276139161278e-01   1.3733125848726713e-01   1.1509743461913158e-01   7.5114102275415165e-02   3.1414794568074902e-02  -6.2173132954468201e-03  -3.2308788258164904e-02  -4.4703750607469506e-02  -4.3444392844583984e-02  -2.9854287464786210e-02  -5.8936012347410921e-03   2.6244386897344700e-02   6.4352225689554204e-02   1.0629505371998969e-01   1.5000240003730445e-01   1.9338434145021488e-01   2.3417273506859482e-01   2.6966783813519141e-01   2.9634522745589287e-01   3.0924227653699404e-01   3.0098937667712167e-01   2.6026581661365977e-01   1.6932342383493290e-01   1.5797506112789691e-16   0.0000000000000000e+00  -1.8924394134617159e-01   7.3363006093836738e-02  -2.9614841905659082e-02  -1.5311149184848488e-01   4.9012653531367273e-02   1.1075368148127659e-01   2.8262262430323058e-02   7.5837179797568946e-02   1.2098883831849538e-01   1.3084698758444752e-01   1.0981224024532800e-01   7.2096254411945768e-02   3.1015051420702957e-02  -4.1518335116882826e-03  -2.8222693388888880e-02  -3.9171761442772013e-02  -3.7064771542818918e-02  -2.3186807652145289e-02   5.7132331730504258e-04   3.2097031150746150e-02   6.9264023568990668e-02   1.1001421333841638e-01   1.5234870593740019e-01   1.9424602108217759e-01   2.3350786626169079e-01   2.6751313169435270e-01   2.9283622991848784e-01   3.0465136153757982e-01   2.9579182709632307e-01   2.5525069495175323e-01   1.6577617107845430e-01  -2.7936258198529906e-15   0.0000000000000000e+00  -1.8372856310287311e-01   6.9894330205939603e-02  -2.8914810436064396e-02  -1.4768167342621333e-01   4.7054334442565494e-02   1.0778431183443800e-01   2.8473326649976736e-02   7.2135537647352366e-02   1.1403726373822229e-01   1.2313998148031149e-01   1.0348526853791915e-01   6.8369097689650618e-02   3.0265326827208137e-02  -2.1356854076191706e-03  -2.3990497471288629e-02  -3.3420429836963472e-02  -3.0512495490643395e-02  -1.6500088083085951e-02   6.8137617663866015e-03   3.7417283921203484e-02   7.3285359098285999e-02   1.1245591192826952e-01   1.5302025866406033e-01   1.9304422824798861e-01   2.3041997760214011e-01   2.6262971828276993e-01   2.8637911161077462e-01   2.9702498865303434e-01   2.8767170212538740e-01   2.4773086602428065e-01   1.6061140963888293e-01  -9.7101866180416351e-18   0.0000000000000000e+00  -1.7645185710080988e-01   6.5776269882553709e-02  -2.7914425713410528e-02  -1.4080422266612319e-01   4.4674806330668421e-02   1.0381008522165290e-01   2.8460790768607882e-02   6.7806093476965479e-02   1.0605821505659567e-01   1.1430394255913756e-01   9.6186945848742669e-02   6.3963338677144710e-02   2.9150443375645964e-02  -2.2829562038837988e-04  -1.9709295938714417e-02  -2.7575403220228278e-02  -2.3931849854168172e-02  -9.9474490639107002e-03   1.2680031646271338e-02   4.2058564438538115e-02   7.6282935840349800e-02   1.1350507454536922e-01   1.5192396883618994e-01   1.8971050778218568e-01   2.2486678227772758e-01   2.5500179877319118e-01   2.7698340374101965e-01   2.8639486801413128e-01   2.7667682047158704e-01   2.3775969003558220e-01   1.5387035659571860e-01  -2.1216355176840754e-17   0.0000000000000000e+00  -1.6749082767972764e-01   6.1058699707940672e-02  -2.6616296665597072e-02  -1.3253951486317439e-01   4.1904798052504140e-02   9.8876125064281728e-02   2.8242952534645857e-02   6.2921231825721638e-02   9.7165616461167711e-02   1.0445789470597996e-01   8.8008926575160393e-02   5.8923277375802836e-02   2.7659922390960011e-02   1.5072081184215752e-03  -1.5486723807463267e-02  -2.1777671883236219e-02  -1.7485168873536228e-02  -3.7010469737248576e-03   1.7998457508137292e-02   4.5858452624302534e-02   7.8110775260322576e-02   1.1303782709294513e-01   1.4896230864859333e-01   1.8417657737454188e-01   2.1681080575838335e-01   2.4462281339265471e-01   2.6467179898872356e-01   2.7280888932517888e-01   2.6287269666988083e-01   2.2540728001790106e-01   1.4560598417092219e-01   1.1169906192602682e-16   0.0000000000000000e+00  -1.5694233891141585e-01   5.5801463399388490e-02  -2.5024260336376582e-02  -1.2296203682044379e-01   3.8777681177836025e-02   9.3033407071244911e-02   2.7843623320946101e-02   5.7571418250482558e-02   8.7501493113248618e-02   9.3751527466723786e-02   7.9069143378977261e-02   5.3310789710364515e-02   2.5790653220445610e-02   3.0054495247329154e-03  -1.1440481988649836e-02  -1.6183828073998999e-02  -1.1353634440407353e-02   2.0469156916308800e-03   2.2577823111410170e-02   4.8636840739780522e-02   7.8608084933952202e-02   1.1091909009165993e-01   1.4403063982884814e-01   1.7637140274384586e-01   2.0621622956570276e-01   2.3149208979282407e-01   2.4947666589804698e-01   2.5632761387602959e-01   2.4633920945955831e-01   2.1075768495224212e-01   1.3588124647018493e-01   4.6617331265212218e-18   0.0000000000000000e+00  -1.4492402666010873e-01   5.0075631061561036e-02  -2.3142953577094196e-02  