<VTKFile type="UnstructuredGrid" version="0.1" byte_order="LittleEndian">
<UnstructuredGrid>
<Piece NumberOfPoints="1089" NumberOfCells="2048">
<Points>
<DataArray type="Float64" NumberOfComponents="3" Format="ascii">  0.0000000000000000e+00  0.0000000000000000e+00  0.0000000000000000e+00   3.1250000000000000e-02  0.0000000000000000e+00  0.0000000000000000e+00   6.2500000000000000e-02  0.0000000000000000e+00  0.0000000000000000e+00   9.3750000000000000e-02  0.0000000000000000e+00  0.0000000000000000e+00   1.2500000000000000e-01  0.0000000000000000e+00  0.0000000000000000e+00   1.5625000000000000e-01  0.0000000000000000e+00  0.0000000000000000e+00   1.8750000000000000e-01  0.0000000000000000e+00  0.0000000000000000e+00   2.1875000000000000e-01  0.0000000000000000e+00  0.0000000000000000e+00   2.5000000000000000e-01  0.0000000000000000e+00  0.0000000000000000e+00   2.8125000000000000e-01  0.0000000000000000e+00  0.0000000000000000e+00   3.1250000000000000e-01  0.0000000000000000e+00  0.0000000000000000e+00   3.4375000000000000e-01  0.0000000000000000e+00  0.0000000000000000e+00   3.7500000000000000e-01  0.0000000000000000e+00  0.0000000000000000e+00   4.0625000000000000e-01  0.0000000000000000e+00  0.0000000000000000e+00   4.3750000000000000e-01  0.0000000000000000e+00  0.0000000000000000e+00   4.6875000000000000e-01  0.0000000000000000e+00  0.0000000000000000e+00   5.0000000000000000e-01  0.0000000000000000e+00  0.0000000000000000e+00   5.3125000000000000e-01  0.0000000000000000e+00  0.0000000000000000e+00   5.6250000000000000e-01  0.0000000000000000e+00  0.0000000000000000e+00   5.9375000000000000e-01  0.0000000000000000e+00  0.0000000000000000e+00   6.2500000000000000e-01  0.0000000000000000e+00  0.0000000000000000e+00   6.5625000000000000e-01  0.0000000000000000e+00  0.0000000000000000e+00   6.8750000000000000e-01  0.0000000000000000e+00  0.0000000000000000e+00   7.1875000000000000e-01  0.0000000000000000e+00  0.0000000000000000e+00   7.5000000000000000e-01  0.0000000000000000e+00  0.0000000000000000e+00   7.8125000000000000e-01  0.0000000000000000e+00  0.0000000000000000e+00   8.1250000000000000e-01  0.0000000000000000e+00  0.0000000000000000e+00   8.4375000000000000e-01  0.0000000000000000e+00  0.0000000000000000e+00   8.7500000000000000e-01  0.0000000000000000e+00  0.0000000000000000e+00   9.0625000000000000e-01  0.0000000000000000e+00  0.0000000000000000e+00   9.3750000000000000e-01  0.0000000000000000e+00  0.0000000000000000e+00   9.6875000000000000e-01  0.0000000000000000e+00  0.0000000000000000e+00   1.0000000000000000e+00  0.0000000000000000e+00  0.0000000000000000e+00   0.0000000000000000e+00  3.1250000000000000e-02  0.0000000000000000e+00   3.1250000000000000e-02  3.1250000000000000e-02  0.0000000000000000e+00   6.2500000000000000e-02  3.1250000000000000e-02  0.0000000000000000e+00   9.3750000000000000e-02  3.1250000000000000e-02  0.0000000000000000e+00   1.2500000000000000e-01  3.1250000000000000e-02  0.0000000000000000e+00   1.5625000000000000e-01  3.1250000000000000e-02  0.0000000000000000e+00   1.8750000000000000e-01  3.1250000000000000e-02  0.0000000000000000e+00   2.1875000000000000e-01  3.1250000000000000e-02  0.0000000000000000e+00   2.5000000000000000e-01  3.1250000000000000e-02  0.0000000000000000e+00   2.8125000000000000e-01  3.1250000000000000e-02  0.0000000000000000e+00   3.1250000000000000e-01  3.1250000000000000e-02  0.0000000000000000e+00   3.4375000000000000e-01  3.1250000000000000e-02  0.0000000000000000e+00   3.7500000000000000e-01  3.1250000000000000e-02  0.0000000000000000e+00   4.0625000000000000e-01  3.1250000000000000e-02  0.0000000000000000e+00   4.3750000000000000e-01  3.1250000000000000e-02  0.0000000000000000e+00   4.6875000000000000e-01  3.1250000000000000e-02  0.0000000000000000e+00   5.0000000000000000e-01  3.1250000000000000e-02  0.0000000000000000e+00   5.3125000000000000e-01  3.1250000000000000e-02  0.0000000000000000e+00   5.6250000000000000e-01  3.1250000000000000e-02  0.0000000000000000e+00   5.9375000000000000e-01  3.1250000000000000e-02  0.0000000000000000e+00   6.2500000000000000e-01  3.1250000000000000e-02  0.0000000000000000e+00   6.5625000000000000e-01  3.1250000000000000e-02  0.0000000000000000e+00   6.8750000000000000e-01  3.1250000000000000e-02  0.0000000000000000e+00   7.1875000000000000e-01  3.1250000000000000e-02  0.0000000000000000e+00   7.5000000000000000e-01  3.1250000000000000e-02  0.0000000000000000e+00   7.8125000000000000e-01  3.1250000000000000e-02  0.0000000000000000e+00   8.1250000000000000e-01  3.1250000000000000e-02  0.0000000000000000e+00   8.4375000000000000e-01  3.1250000000000000e-02  0.0000000000000000e+00   8.7500000000000000e-01  3.1250000000000000e-02  0.0000000000000000e+00   9.0625000000000000e-01  3.1250000000000000e-02  0.0000000000000000e+00   9.3750000000000000e-01  3.1250000000000000e-02  0.0000000000000000e+00   9.6875000000000000e-01  3.1250000000000000e-02  0.0000000000000000e+00   1.0000000000000000e+00  3.1250000000000000e-02  0.0000000000000000e+00   0.0000000000000000e+00  6.2500000000000000e-02  0.0000000000000000e+00   3.1250000000000000e-02  6.2500000000000000e-02  0.0000000000000000e+00   6.2500000000000000e-02  6.2500000000000000e-02  0.0000000000000000e+00   9.3750000000000000e-02  6.2500000000000000e-02  0.0000000000000000e+00   1.2500000000000000e-01  6.2500000000000000e-02  0.0000000000000000e+00   1.5625000000000000e-01  6.2500000000000000e-02  0.0000000000000000e+00   1.8750000000000000e-01  6.2500000000000000e-02  0.0000000000000000e+00   2.1875000000000000e-01  6.2500000000000000e-02  0.0000000000000000e+00   2.5000000000000000e-01  6.2500000000000000e-02  0.0000000000000000e+00   2.8125000000000000e-01  6.2500000000000000e-02  0.0000000000000000e+00   3.1250000000000000e-01  6.2500000000000000e-02  0.0000000000000000e+00   3.4375000000000000e-01  6.2500000000000000e-02  0.0000000000000000e+00   3.7500000000000000e-01  6.2500000000000000e-02  0.0000000000000000e+00   4.0625000000000000e-01  6.2500000000000000e-02  0.0000000000000000e+00   4.3750000000000000e-01  6.2500000000000000e-02  0.0000000000000000e+00   4.6875000000000000e-01  6.2500000000000000e-02  0.0000000000000000e+00   5.0000000000000000e-01  6.2500000000000000e-02  0.0000000000000000e+00   5.3125000000000000e-01  6.2500000000000000e-02  0.0000000000000000e+00   5.6250000000000000e-01  6.2500000000000000e-02  0.0000000000000000e+00   5.9375000000000000e-01  6.2500000000000000e-02  0.0000000000000000e+00   6.2500000000000000e-01  6.2500000000000000e-02  0.0000000000000000e+00   6.5625000000000000e-01  6.2500000000000000e-02  0.0000000000000000e+00   6.8750000000000000e-01  6.2500000000000000e-02  0.0000000000000000e+00   7.1875000000000000e-01  6.2500000000000000e-02  0.0000000000000000e+00   7.5000000000000000e-01  6.2500000000000000e-02  0.0000000000000000e+00   7.8125000000000000e-01  6.2500000000000000e-02  0.0000000000000000e+00   8.1250000000000000e-01  6.2500000000000000e-02  0.0000000000000000e+00   8.4375000000000000e-01  6.2500000000000000e-02  0.0000000000000000e+00   8.7500000000000000e-01  6.2500000000000000e-02  0.0000000000000000e+00   9.0625000000000000e-01  6.2500000000000000e-02  0.0000000000000000e+00   9.3750000000000000e-01  6.2500000000000000e-02  0.0000000000000000e+00   9.6875000000000000e-01  6.2500000000000000e-02  0.0000000000000000e+00   1.0000000000000000e+00  6.2500000000000000e-02  0.0000000000000000e+00   0.0000000000000000e+00  9.3750000000000000e-02  0.0000000000000000e+00   3.1250000000000000e-02  9.3750000000000000e-02  0.0000000000000000e+00   6.2500000000000000e-02  9.3750000000000000e-02  0.0000000000000000e+00   9.3750000000000000e-02  9.3750000000000000e-02  0.0000000000000000e+00   1.2500000000000000e-01  9.3750000000000000e-02  0.0000000000000000e+00   1.5625000000000000e-01  9.3750000000000000e-02  0.0000000000000000e+00   1.8750000000000000e-01  9.3750000000000000e-02  0.0000000000000000e+00   2.1875000000000000e-01  9.3750000000000000e-02  0.0000000000000000e+00   2.5000000000000000e-01  9.3750000000000000e-02  0.0000000000000000e+00   2.8125000000000000e-01  9.3750000000000000e-02  0.0000000000000000e+00   3.1250000000000000e-01  9.3750000000000000e-02  0.0000000000000000e+00   3.4375000000000000e-01  9.3750000000000000e-02  0.0000000000000000e+00   3.7500000000000000e-01  9.3750000000000000e-02  0.0000000000000000e+00   4.0625000000000000e-01  9.3750000000000000e-02  0.0000000000000000e+00   4.3750000000000000e-01  9.3750000000000000e-02  0.0000000000000000e+00   4.6875000000000000e-01  9.3750000000000000e-02  0.0000000000000000e+00   5.0000000000000000e-01  9.3750000000000000e-02  0.0000000000000000e+00   5.3125000000000000e-01  9.3750000000000000e-02  0.0000000000000000e+00   5.6250000000000000e-01  9.3750000000000000e-02  0.0000000000000000e+00   5.9375000000000000e-01  9.3750000000000000e-02  0.0000000000000000e+00   6.2500000000000000e-01  9.3750000000000000e-02  0.0000000000000000e+00   6.5625000000000000e-01  9.3750000000000000e-02  0.0000000000000000e+00   6.8750000000000000e-01  9.3750000000000000e-02  0.0000000000000000e+00   7.1875000000000000e-01  9.3750000000000000e-02  0.0000000000000000e+00   7.5000000000000000e-01  9.3750000000000000e-02  0.0000000000000000e+00   7.8125000000000000e-01  9.3750000000000000e-02  0.0000000000000000e+00   8.1250000000000000e-01  9.3750000000000000e-02  0.0000000000000000e+00   8.4375000000000000e-01  9.3750000000000000e-02  0.0000000000000000e+00   8.7500000000000000e-01  9.3750000000000000e-02  0.0000000000000000e+00   9.0625000000000000e-01  9.3750000000000000e-02  0.0000000000000000e+00   9.3750000000000000e-01  9.3750000000000000e-02  0.0000000000000000e+00   9.6875000000000000e-01  9.3750000000000000e-02  0.0000000000000000e+00   1.0000000000000000e+00  9.3750000000000000e-02  0.0000000000000000e+00   0.0000000000000000e+00  1.2500000000000000e-01  0.0000000000000000e+00   3.1250000000000000e-02  1.2500000000000000e-01  0.0000000000000000e+00  
[...]
<PointData Scalars="scalars">
<DataArray type="Float64" Name="Solution Component 0" Format="ascii">  0.0000000000000000e+00   0.0000000000000000e+00   0.0000000000000000e+00   0.0000000000000000e+00   0.0000000000000000e+00   0.0000000000000000e+00   0.0000000000000000e+00   0.0000000000000000e+00   0.0000000000000000e+00   0.0000000000000000e+00   0.0000000000000000e+00   0.0000000000000000e+00   0.0000000000000000e+00   0.0000000000000000e+00   0.0000000000000000e+00   0.0000000000000000e+00   0.0000000000000000e+00   0.0000000000000000e+00   0.0000000000000000e+00   0.0000000000000000e+00   0.0000000000000000e+00   0.0000000000000000e+00   0.0000000000000000e+00   0.0000000000000000e+00   0.0000000000000000e+00   0.0000000000000000e+00   0.0000000000000000e+00   0.0000000000000000e+00   0.0000000000000000e+00   0.0000000000000000e+00   0.0000000000000000e+00   0.0000000000000000e+00   0.0000000000000000e+00   0.0000000000000000e+00   9.8277335719719819e-03   3.0851750019480186e-02   3.6386200243567014e-02   3.2209601317618332e-02   1.3132012866002555e-02  -2.4174592202739192e-02  -4.7907443088921822e-02  -4.9151785106931960e-02  -3.5014117857801716e-02  -3.1189813010572970e-02  -3.5585526726726130e-02  -2.8823723781617662e-02  -9.9841998794655586e-03   1.3140472304244680e-02   3.1535519792269401e-02   3.6966450603803852e-02   1.9942463896998434e-02  -1.8054103832162494e-02   4.2331962770884649e-02   7.0019424425346102e-02   7.4789512882879980e-02   6.6082100671500235e-02   4.9430521880466732e-02   2.7450931209976805e-02   2.5845247057355321e-04  -4.1807032335274920e-02  -7.9326426853609230e-02  -9.5389918356896072e-02  -8.7979081997597061e-02  -6.7488704473432956e-02  -4.5660707327678185e-02  -3.0221520865658855e-20   0.0000000000000000e+00  -9.4866061180227060e-03   7.4543552398051383e-02   1.0230808712628761e-01   1.1729137881739803e-01   1.0083047237891185e-01   8.0470228994733075e-03  -7.0267007850228519e-02  -9.8224341695257261e-02  -7.0166245405895986e-02  -7.1051950833096345e-02  -1.2779685441919961e-01  -1.3919354396517136e-01  -1.0539834170058142e-01  -4.4029010242400433e-02   2.3417539453809314e-02   7.8113424447965207e-02   4.3053624679037020e-02  -2.0919418109589576e-02   1.2005645681199788e-01   1.7389587700244805e-01   1.7545601084181991e-01   1.4779498513099715e-01   1.0185633339564995e-01   5.8209034274887224e-02   5.5141926885476887e-03  -8.7504291226997571e-02  -1.6523217385913858e-01  -1.9584231787472967e-01  -1.7222138280660271e-01  -1.2372013193139740e-01  -9.8407896747401288e-02  -2.1306824416100777e-19   0.0000000000000000e+00  -3.9154482986637491e-02   1.3031299917375119e-01   1.6992693899358696e-01   2.0013863423373893e-01   1.9189003364599685e-01   4.2458103626646176e-02  -9.4114594315175215e-02  -1.4666136751088915e-01  -1.0403579965294479e-01  -1.0558531003582547e-01  -2.1338235541451711e-01  -2.4428676954546621e-01  -1.9719363558492720e-01  -9.9413576349807325e-02   1.5118572126742731e-02   1.1841727468860280e-01   6.5227270255553360e-02  -3.1600914910552960e-02   1.8638763042365375e-01   2.6888444904159803e-01   2.7049553748935629e-01   2.2766238754571011e-01   1.5513944119599135e-01   9.1306136983560104e-02   2.2230783284223378e-02  -1.2057924559829938e-01  -2.4148534585167583e-01  -2.9020784147906192e-01  -2.5015466656399576e-01  -1.6686664216860547e-01  -1.4257175285179616e-01   2.2111499432842860e-22   0.0000000000000000e+00  -7.7424067344146016e-02   1.8144938846448644e-01   2.3587945378411448e-01   2.7912897880929299e-01   2.7850245003307827e-01   7.7559059193593599e-02  -1.1551604782016299e-01  -1.9301951553862787e-01  -1.3556136363220220e-01  -1.3462051720684279e-01  -2.8790084068189720e-01  -3.3795882308285852e-01  -2.8072113643172769e-01  -1.5116800190499713e-01   5.9000089239567679e-03   1.5468771580254193e-01   8.4640730397012906e-02  -4.6090719426930583e-02   2.4346336410960534e-01   3.5449184016990659e-01   3.5802030192003320e-01   3.0301614307287345e-01   2.0762812905114458e-01   1.2562177146898193e-01   4.2027556037854116e-02  -1.4705808228880549e-01  -3.0997766604181626e-01  -3.7702505892014981e-01  -3.2139942005816369e-01  -2.0287059106934252e-01  -1.8171318248026011e-01   2.2277881735347228e-21   0.0000000000000000e+00  -1.1870962709931415e-01   2.2633369270699033e-01   2.9671099462561051e-01   3.5238342439061382e-01   3.5909523038386620e-01   1.1096318336249865e-01  -1.3539592461130201e-01  -2.3626398296151557e-01  -1.6429826477455733e-01  -1.5923639154204081e-01  -3.5221898967773929e-01  -4.1983229223009699e-01  -3.5489922168032467e-01  -1.9838094147212093e-01  -4.1299947989426626e-03   1.8554449479584817e-01   1.0066614325248195e-01  -6.1874615628622918e-02   2.9274610842699911e-01   4.3080370060912915e-01   4.3733458874853626e-01   3.7279163692756312e-01   2.5835710189523364e-01   1.6043441181512261e-01   6.2981774779200750e-02  -1.6913516878863860e-01  -3.7157405691466672e-01  -4.5598893025721898e-01  -3.8563879234206694e-01  -2.3283014725842205e-01  -2.1696174461566747e-01  -7.3923088636921911e-21   0.0000000000000000e+00  -1.6018823483120573e-01   2.6536191875031245e-01   3.5108834945645856e-01   4.1867530861185542e-01   4.3289019828955061e-01   1.4164409799072017e-01  -1.5406106137587500e-01  -2.7579307832731537e-01  -1.9007964377779149e-01  -1.8025239318729983e-01  -4.0773835034124339e-01  -4.9090129300482882e-01  -4.2000341147127268e-01  -2.4086099444948755e-01  -1.4771495774193195e-02   2.1065197097885596e-01   1.1321336426706295e-01  -7.7555581327382717e-02   3.3513942404372360e-01   4.9797205638161124e-01   5.0809141219532838e-01   4.3636828223278534e-01   3.0659839108573145e-01   1.9508419828463863e-01   8.4334197149867313e-02  -1.8756110389923780e-01  -4.2648083861167907e-01  -5.2681071454279627e-01  -4.4264337759962108e-01  -2.5713025274954571e-01  -2.4859152680888361e-01   2.4816041874374275e-20   0.0000000000000000e+00  -2.0040389880546550e-01   2.9902668296726520e-01   3.9868911555158087e-01   4.7748578529469349e-01   4.9948915867305299e-01   1.6931907152816025e-01  -1.7137243651722958e-01  -3.1127865091208529e-01  -2.1285975641593205e-01  -1.9816506533194619e-01  -4.5547159306644597e-01  -5.5216451186480175e-01  -4.7661149576135964e-01  -2.7870186618359277e-01  -2.5817188423663821e-02   2.3022655730727271e-01   1.2246297192113179e-01  -9.2374269007921617e-02   3.7118078401511723e-01   5.5612919761310020e-01   5.7010516051066462e-01   4.9332879988872552e-01   3.5175154451219964e-01   2.2895954226376475e-01   1.0555638832262057e-01  -2.0263855116873941e-01  -4.7466125152140598e-01  -5.8922436665269418e-01  -4.9228603568472223e-01  -2.7611899304641835e-01  -2.7663192558501559e-01  -5.6239048614537871e-20   0.0000000000000000e+00  -2.3858997410741462e-01   3.2766793771190300e-01   4.3955887835890822e-01   5.2870110753051758e-01   5.5873270233745453e-01   1.9398875275738708e-01  -1.8707713135823073e-01  -3.4254094831079784e-01  -2.3263935198234675e-01  -2.1325850053156442e-01  -4.9603246407734253e-01  -6.0433655122777397e-01  -5.2522971952443920e-01  -3.1204079089234521e-01  -3.7051524755060988e-02   2.4471533109680008e-01   1.2871694487884125e-01  -1.0590517023075915e-01   4.0120764976641171e-01   6.0540388353377306e-01   6.2330317006124825e-01   5.4339540600988134e-01   3.9331702656411827e-01   2.6151014516121140e-01   1.2621462997979713e-01  -2.1454301809284146e-01  -5.1604461488235986e-01  -6.4305143058249503e-01  -5.3453152347967658e-01  -2.9015882900625428e-01  -3.0105881675672025e-01   6.7292862227554776e-20   0.0000000000000000e+00  -2.7431110943463527e-01   3.5148892192606285e-01   4.7384383112497752e-01   5.7237350272288146e-01   6.1056506118760812e-01   2.1572795078958748e-01  -2.0093939918259079e-01  -3.6947737509477879e-01  -2.4943304831910557e-01  -2.2569390557617172e-01  -5.2977255197074713e-01  -6.4787459593686014e-01  -5.6621599298371506e-01  -3.4097433375904235e-01  -4.8256720986420851e-02   2.5461489288403460e-01   1.3230966849646700e-01  -1.1789828628783795e-01   4.2546007442428430e-01   6.4594069075558580e-01   6.6769913376906931e-01   5.8639427202628736e-01   4.3087998268900507e-01   2.9224601905621744e-01   1.4594959031196439e-01  -2.2341330293161690e-01  -5.5059501672655542e-01  -6.8821150875610060e-01  -5.6941457152739272e-01  -2.9960049523194798e-01  -3.2184195980408775e-01  -2.2365854141482807e-20   0.0000000000000000e+00  -3.0728096296459945e-01   3.7060741154681232e-01   5.0169665193444590e-01   6.0859869000738498e-01   6.5495334056497923e-01   2.3460488002104546e-01  -2.1277453505988528e-01  -3.9202713537288941e-01  -2.6325747776709751e-01  -2.3556417233044133e-01  -5.5689611354146207e-01  -6.8306445071194788e-01  -5.9980391677577727e-01  -3.6554919450295020e-01  -5.9223725286499704e-02   2.6038754439700851e-01   1.3356046865797178e-01  -1.2820333226948605e-01   4.4413353548388451e-01   6.7790637442946677e-01   7.0336984248498302e-01   6.2222683092211284e-01   4.6409443623354651e-01   3.2072977939123926e-01   1.6446306178950001e-01  -2.2937594886666718e-01  -5.7832169116980692e-01  -7.2470478841252195e-01  -5.9701787396337269e-01  -3.0476638866370365e-01  -3.3895380744601333e-01   1.1403177532620232e-21   0.0000000000000000e+00  -3.3727341682909978e-01   3.8510041404661099e-01   5.2325438836225113e-01   6.3747062459868442e-01   6.9185747122273400e-01   2.5065780456436915e-01  -2.2245036089662526e-01  -4.1015601411078917e-01  -2.7412918347824372e-01  -2.4292477035997403e-01  -5.7753401657463121e-01  -7.1009539781704289e-01  -6.2614757627345663e-01  -3.8577781315961901e-01  -6.9760381317633527e-02   2.6243463289472968e-01   1.3275393869714383e-01  -1.3673390678156280e-01   4.5740387582531411e-01   7.0148884714841908e-01   7.3043666861566514e-01   6.5084834917753998e-01   4.9267019284873897e-01   3.4656933020611203e-01   1.8150359434686897e-01  -2.3255371415587303e-01  -5.9927373771661807e-01  -7.5259128058328473e-01  -6.1745631404337997e-01  -3.0594785208656589e-01  -3.5237186011262905e-01   6.7267029602757682e-22   0.0000000000000000e+00  -3.6408248157208695e-01   3.9503606377042833e-01   5.3864317826308172e-01   6.5907486718397501e-01   7.2122947788563718e-01   2.6389568346828457e-01  -2.2988065400314048e-01  -4.2385183686529621e-01  -2.8206692315852450e-01  -2.4781159399990946e-01  -5.9178796430647462e-01  -7.2911292148382090e-01  -6.4536124664156669e-01  -4.0165721559059914e-01  -7.9694727719439126e-02   2.6109859919981759e-01   1.3013675117221762e-01  -1.4344938015375291e-01   4.6543983039637599e-01   7.1689548737247177e-01   7.4905412694808271e-01   6.7225481736658865e-01   5.1636412303880563e-01   3.6941319856507987e-01   1.9685426037877379e-01  -2.3307094121885596e-01  -6.1353498074304691e-01  -7.7197691541867930e-01  -6.3086913795601951e-01  -3.0341054279384433e-01  -3.6208188798607976e-01  -7.7645356553278181e-23   0.0000000000000000e+00  -3.8750733455754621e-01   4.0049442662636997e-01   5.4799080144521561e-01   6.7349770940829190e-01   7.4302541439578496e-01   2.7430748337322736e-01  -2.3501820173048232e-01  -4.3312537782811417e-01  -2.8709586724680908e-01  -2.5025240491002831e-01  -5.9975723914801871e-01  -7.4025382676872420e-01  -6.5754915319260665e-01  -4.1318447882925358e-01  -8.8874598042579092e-02   2.5667674285174163e-01   1.2592284345480806e-01  -1.4834442952135660e-01   4.6841131149558202e-01   7.2435419549982838e-01   7.5940569591364726e-01   6.8647735215242112e-01   5.3497569132970557e-01   3.8894829174045248e-01   2.1032409781642963e-01  -2.3105836047760178e-01  -6.2122278380184504e-01  -7.8300808973952551e-01  -6.3741904449317777e-01  -2.9740333763312427e-01  -3.6808251025468741e-01  -1.1269419520744663e-19   0.0000000000000000e+00  -4.0735006929996342e-01   4.0158038209667341e-01   5.5143986243879983e-01   6.8083998814209834e-01   7.5722084889439112e-01   2.8187338131759510e-01  -2.3784942845156146e-01  -4.3801384336249793e-01  -2.8925247435165463e-01  -2.5027535109464333e-01  -6.0155612886819598e-01  -7.4367001293691559e-01  -6.6282688147503399e-01  -4.2036812655849248e-01  -9.7165314731031863e-02   2.4943787179012822e-01   1.2030192401100449e-01  -1.5144213408116169e-01   4.6649685098097410e-01   7.2411787941370742e-01   7.6170555709646515e-01   6.9358228467467553e-01   5.4834573230960104e-01   4.0489922169123338e-01   2.2174304041645632e-01  -2.2665748292569121e-01  -6.2249045082061016e-01  -7.8587290122124809e-01  -6.3729613240606586e-01  -2.8816819311555048e-01  -3.7039035001401183e-01   1.6752221737649234e-21   0.0000000000000000e+00  -4.2341954366965423e-01   3.9843135259806073e-01   5.4915937909815171e-01   6.8123098444237085e-01   7.6382584836563205e-01   2.8657519063020170e-01  -2.3839068025873220e-01  -4.3858532107958781e-01  -2.8858940265683491e-01  -2.4791614792696701e-01  -5.9732660987142461e-01  -7.3954553834907066e-01  -6.6133706267481029e-01  -4.2323643681879669e-01  -1.0444682399426808e-01   2.3963790352190531e-01   1.1344853614835972e-01  -1.5278910016355077e-01   4.5989114692371180e-01   7.1647164769727611e-01   7.5620437529563722e-01   6.9367496689072672e-01   5.5635735454606960e-01   4.1702847398361087e-01   2.3095953409740175e-01  -2.2002436423944649e-01  -6.1753181782749200e-01  -7.8080656957245842e-01  -6.3072463315958360e-01  -2.7594966371806984e-01  -3.6904508967689514e-01   1.3037040984017297e-22   0.0000000000000000e+00  -4.3553784670946283e-01   3.9122181047832322e-01   5.4135439314312694e-01   6.7484081545362284e-01   7.6289805876581618e-01   2.8840525990257138e-01  -2.3668569478803650e-01  -4.3494326138087713e-01  -2.8518007999374362e-01  -2.4322453915263220e-01  -5.8724857973371380e-01  -7.2810979871689163e-01  -6.5326140681742895e-01  -4.2184372869925685e-01  -1.1061100409118840e-01   2.2753308651165483e-01   1.0553037896964453e-01  -1.5245202883263470e-01   4.4881263786613423e-01   7.0174153999255462e-01   7.4319732504846425e-01   6.8690562414385314e-01   5.5893806276024771e-01   4.2513700300377560e-01   2.3784005813800832e-01  -2.1133252396924918e-01  -6.0658665085725061e-01  -7.6809881157003879e-01  -6.1797073789743862e-01  -2.6100348439729731e-01  -3.6411403885643667e-01   1.3611141006182451e-21   0.0000000000000000e+00  -4.4354765269486790e-01   3.8016570795275251e-01   5.2827373524200727e-01   6.6189094145243610e-01   7.5455364271277559e-01   2.8737391023911041e-01  -2.3280366506389291e-01  -4.2723041779832538e-01  -2.7912268198889167e-01  -2.3627022615057205e-01  -5.7154867001588927e-01  -7.0964835005962512e-01  -6.3883039762806504e-01  -4.1627536803076365e-01  -1.1555942388845765e-01   2.1339072377776544e-01   9.6715409594370055e-02  -1.5051541900605644e-01   4.3351071263238034e-01   6.8030365010896898e-01   7.2303289627356693e-01   6.7347599234162259e-01   5.5606246356430744e-01   4.2906509142024346e-01   2.4226999598832960e-01  -2.0077481554055887e-01  -5.8994571261110829e-01  -7.4810142608743324e-01  -5.9935024675313475e-01  -2.4360395932724002e-01  -3.5569602741930284e-01   1.3037040984017297e-22   0.0000000000000000e+00  -4.4731973006946868e-01   3.6551738098617770e-01   5.1021608918333416e-01   6.4266277929587678e-01   7.3897622694237719e-01   2.8351574356186665e-01  -2.2683733205510831e-01  -4.1563184812769099e-01  -2.7054332161280265e-01  -2.2714828096579773e-01  -5.5050802752478700e-01  -6.8451212316254351e-01  -6.1833137590883835e-01  -4.0665190749605828e-01  -1.1920157610929243e-01   1.9749773402774154e-01   8.7177655950746100e-02  -1.4708014580840240e-01   4.1427213450968281e-01   6.5259267479627925e-01   6.9612134800531278e-01   6.5364582893890599e-01   5.4775513883670035e-01   4.2869346269431918e-01   2.4415551734886723e-01  -1.8856403298864885e-01  -5.6795458273534616e-01  -7.2123475391855751e-01  -5.7523507539375185e-01  -2.2405001736466082e-01  -3.4392453166043235e-01   1.6752221737649234e-21   0.0000000000000000e+00  -4.4676044111159302e-01   3.4757107070882204e-01   4.8753433555238207e-01   6.1750439261781620e-01   7.1642400925897820e-01   2.7689514623336109e-01  -2.1890060751010712e-01  -4.0037663699452303e-01  -2.5959825488195243e-01  -2.1598397145399670e-01  -5.2446912450219851e-01  -6.5312532074933871e-01  -5.9211534621728246e-01  -3.9313254854530061e-01  -1.2145351616888284e-01   1.8016744759102929e-01   7.7101825896233794e-02  -1.4226262981635071e-01   3.9142630954285162e-01   6.1910908531406394e-01   6.6294191825850668e-01   6.2773861110295526e-01   5.3409338819440144e-01   4.2394467470401642e-01   2.4342624849447100e-01  -1.7493204027746437e-01  -5.4101545984742194e-01  -6.8799192664736275e-01  -5.4605781864500391e-01  -2.0266979264489512e-01  -3.2896996438800308e-01  -1.1269419520744663e-19   0.0000000000000000e+00  -4.4181936286225898e-01   3.2665895097300929e-01   4.6063792552452887e-01   5.8683500416135670e-01   6.8723495015805247e-01   2.6761114482993742e-01  -2.0912530640144894e-01  -3.8173797941263937e-01  -2.4647486310656050e-01  -2.0293682749375672e-01  -4.9384145307507465e-01  -6.1599199470638533e-01  -5.6060257003674552e-01  -3.7591796779929110e-01  -1.2223685517376474e-01   1.6174488877804460e-01   6.6686815540450750e-02  -1.3619425588173939e-01   3.6534908366316887e-01   5.8042421514747178e-01   6.2404801800025367e-01   5.9614582626370161e-01   5.1520954688694176e-01   4.1478474723184239e-01   2.4003847967376973e-01  -1.6012725818756537e-01  -5.0958625799605473e-01  -6.4893993107721659e-01  -5.1231363399445073e-01  -1.7982354526590863e-01  -3.1104105375650692e-01  -7.7645356553278181e-23   0.0000000000000000e+00  -4.3249723414501046e-01   3.0314743659387339e-01   4.2999277127830471e-01   5.5114671202142540e-01   6.5182958993539342e-01   2.5580148116395390e-01  -1.9765665936345098e-01  -3.6003119347367812e-01  -2.3139108885665169e-01  -1.8820360860269897e-01  -4.5910576029016370e-01  -5.7370103880139889e-01  -5.2428676927216233e-01  -3.5525245271138051e-01  -1.2147816188554737e-01   1.4261050776581602e-01   5.6148158077157825e-02  -1.2902058898551141e-01   3.3646480842210746e-01   5.3718259735775997e-01   5.8006967115451102e-01   5.5932925357205965e-01   4.9129248392566244e-01   4.0122477249895644e-01   2.3397845941802925e-01  -1.4441048261332298e-01  -4.7417638547462526e-01  -6.0471656361569615e-01  -4.7455876149075654e-01  -1.5590475177505603e-01  -2.9038526142797488e-01  -6.5047900955328796e-21   0.0000000000000000e+00  -4.1885424456938952e-01   2.7743161298189922e-01   3.9611785842067926e-01   5.1100231975444210e-01   6.1071051429265200e-01   2.4164536414108947e-01  -1.8464739779171035e-01  -3.3560914284714360e-01  -2.1459289442229879e-01  -1.7201956113753583e-01  -4.2081621200913250e-01  -5.2692899213403144e-01  -4.8373746886736235e-01  -3.3142520713111351e-01  -1.1910903093783616e-01   1.2318188294547766e-01   4.5719342607061550e-02  -1.2089971125569000e-01   3.0524650428833849e-01   4.9010092049334780e-01   5.3171248596757825e-01   5.1782060160596310e-01   4.6258770372786956e-01   3.8332190361296853e-01   2.2526493147567384e-01  -1.2804927710103639e-01  -4.3533872142815438e-01  -5.5602244199085693e-01  -4.3340519820230289e-01  -1.3133943200602957e-01  -2.6728834955624570e-01  -3.7998247489103893e-21   0.0000000000000000e+00  -4.0101805322414263e-01   2.4992798649105455e-01   3.5957752124243314e-01   4.6702766410003393e-01   5.6445688525105298e-01   2.2536382601233931e-01  -1.7025038167433187e-01  -3.0885448739484528e-01  -1.9634919934240894e-01  -1.5465697046614385e-01  -3.7959947650234466e-01  -4.7643950868985985e-01  -4.3959955926401800e-01  -3.0477059256177741e-01  -1.1506740934546714e-01   1.0391226293475056e-01   3.5651783962732983e-02  -1.1199857460796125e-01   2.7221412058624711e-01   4.3996307170380289e-01   4.7975257074962058e-01   4.7221793294144043e-01   4.2939527980536668e-01   3.6117859174786709e-01   2.1394946455403011e-01  -1.1131161681557565e-01  -3.9365755030741006e-01  -5.0360752760143446e-01  -3.8951164126676657e-01  -1.0658451666969580e-01  -2.4207367092310053e-01   9.6760086707699348e-24   0.0000000000000000e+00  -3.7918943421071044e-01   2.2106662142674177e-01   3.2096814478583302e-01  