<VTKFile type="UnstructuredGrid" version="0.1" byte_order="LittleEndian">
<UnstructuredGrid>
<Piece NumberOfPoints="1089" NumberOfCells="2048">
<Points>
<DataArray type="Float64" NumberOfComponents="3" Format="ascii">  0.0000000000000000e+00  0.0000000000000000e+00  0.0000000000000000e+00   3.1250000000000000e-02  0.0000000000000000e+00  0.0000000000000000e+00   6.2500000000000000e-02  0.0000000000000000e+00  0.0000000000000000e+00   9.3750000000000000e-02  0.0000000000000000e+00  0.0000000000000000e+00   1.2500000000000000e-01  0.0000000000000000e+00  0.0000000000000000e+00   1.5625000000000000e-01  0.0000000000000000e+00  0.0000000000000000e+00   1.8750000000000000e-01  0.0000000000000000e+00  0.0000000000000000e+00   2.1875000000000000e-01  0.0000000000000000e+00  0.0000000000000000e+00   2.5000000000000000e-01  0.0000000000000000e+00  0.0000000000000000e+00   2.8125000000000000e-01  0.0000000000000000e+00  0.0000000000000000e+00   3.1250000000000000e-01  0.0000000000000000e+00  0.0000000000000000e+00   3.4375000000000000e-01  0.0000000000000000e+00  0.0000000000000000e+00   3.7500000000000000e-01  0.0000000000000000e+00  0.0000000000000000e+00   4.0625000000000000e-01  0.0000000000000000e+00  0.0000000000000000e+00   4.3750000000000000e-01  0.0000000000000000e+00  0.0000000000000000e+00   4.6875000000000000e-01  0.0000000000000000e+00  0.0000000000000000e+00   5.0000000000000000e-01  0.0000000000000000e+00  0.0000000000000000e+00   5.3125000000000000e-01  0.0000000000000000e+00  0.0000000000000000e+00   5.6250000000000000e-01  0.0000000000000000e+00  0.0000000000000000e+00   5.9375000000000000e-01  0.0000000000000000e+00  0.0000000000000000e+00   6.2500000000000000e-01  0.0000000000000000e+00  0.0000000000000000e+00   6.5625000000000000e-01  0.0000000000000000e+00  0.0000000000000000e+00   6.8750000000000000e-01  0.0000000000000000e+00  0.0000000000000000e+00   7.1875000000000000e-01  0.0000000000000000e+00  0.0000000000000000e+00   7.5000000000000000e-01  0.0000000000000000e+00  0.0000000000000000e+00   7.8125000000000000e-01  0.0000000000000000e+00  0.0000000000000000e+00   8.1250000000000000e-01  0.0000000000000000e+00  0.0000000000000000e+00   8.4375000000000000e-01  0.0000000000000000e+00  0.0000000000000000e+00   8.7500000000000000e-01  0.0000000000000000e+00  0.0000000000000000e+00   9.0625000000000000e-01  0.0000000000000000e+00  0.0000000000000000e+00   9.3750000000000000e-01  0.0000000000000000e+00  0.0000000000000000e+00   9.6875000000000000e-01  0.0000000000000000e+00  0.0000000000000000e+00   1.0000000000000000e+00  0.0000000000000000e+00  0.0000000000000000e+00   0.0000000000000000e+00  3.1250000000000000e-02  0.0000000000000000e+00   3.1250000000000000e-02  3.1250000000000000e-02  0.0000000000000000e+00   6.2500000000000000e-02  3.1250000000000000e-02  0.0000000000000000e+00   9.3750000000000000e-02  3.1250000000000000e-02  0.0000000000000000e+00   1.2500000000000000e-01  3.1250000000000000e-02  0.0000000000000000e+00   1.5625000000000000e-01  3.1250000000000000e-02  0.0000000000000000e+00   1.8750000000000000e-01  3.1250000000000000e-02  0.0000000000000000e+00   2.1875000000000000e-01  3.1250000000000000e-02  0.0000000000000000e+00   2.5000000000000000e-01  3.1250000000000000e-02  0.0000000000000000e+00   2.8125000000000000e-01  3.1250000000000000e-02  0.0000000000000000e+00   3.1250000000000000e-01  3.1250000000000000e-02  0.0000000000000000e+00   3.4375000000000000e-01  3.1250000000000000e-02  0.0000000000000000e+00   3.7500000000000000e-01  3.1250000000000000e-02  0.0000000000000000e+00   4.0625000000000000e-01  3.1250000000000000e-02  0.0000000000000000e+00   4.3750000000000000e-01  3.1250000000000000e-02  0.0000000000000000e+00   4.6875000000000000e-01  3.1250000000000000e-02  0.0000000000000000e+00   5.0000000000000000e-01  3.1250000000000000e-02  0.0000000000000000e+00   5.3125000000000000e-01  3.1250000000000000e-02  0.0000000000000000e+00   5.6250000000000000e-01  3.1250000000000000e-02  0.0000000000000000e+00   5.9375000000000000e-01  3.1250000000000000e-02  0.0000000000000000e+00   6.2500000000000000e-01  3.1250000000000000e-02  0.0000000000000000e+00   6.5625000000000000e-01  3.1250000000000000e-02  0.0000000000000000e+00   6.8750000000000000e-01  3.1250000000000000e-02  0.0000000000000000e+00   7.1875000000000000e-01  3.1250000000000000e-02  0.0000000000000000e+00   7.5000000000000000e-01  3.1250000000000000e-02  0.0000000000000000e+00   7.8125000000000000e-01  3.1250000000000000e-02  0.0000000000000000e+00   8.1250000000000000e-01  3.1250000000000000e-02  0.0000000000000000e+00   8.4375000000000000e-01  3.1250000000000000e-02  0.0000000000000000e+00   8.7500000000000000e-01  3.1250000000000000e-02  0.0000000000000000e+00   9.0625000000000000e-01  3.1250000000000000e-02  0.0000000000000000e+00   9.3750000000000000e-01  3.1250000000000000e-02  0.0000000000000000e+00   9.6875000000000000e-01  3.1250000000000000e-02  0.0000000000000000e+00   1.0000000000000000e+00  3.1250000000000000e-02  0.0000000000000000e+00   0.0000000000000000e+00  6.2500000000000000e-02  0.0000000000000000e+00   3.1250000000000000e-02  6.2500000000000000e-02  0.0000000000000000e+00   6.2500000000000000e-02  6.2500000000000000e-02  0.0000000000000000e+00   9.3750000000000000e-02  6.2500000000000000e-02  0.0000000000000000e+00   1.2500000000000000e-01  6.2500000000000000e-02  0.0000000000000000e+00   1.5625000000000000e-01  6.2500000000000000e-02  0.0000000000000000e+00   1.8750000000000000e-01  6.2500000000000000e-02  0.0000000000000000e+00   2.1875000000000000e-01  6.2500000000000000e-02  0.0000000000000000e+00   2.5000000000000000e-01  6.2500000000000000e-02  0.0000000000000000e+00   2.8125000000000000e-01  6.2500000000000000e-02  0.0000000000000000e+00   3.1250000000000000e-01  6.2500000000000000e-02  0.0000000000000000e+00   3.4375000000000000e-01  6.2500000000000000e-02  0.0000000000000000e+00   3.7500000000000000e-01  6.2500000000000000e-02  0.0000000000000000e+00   4.0625000000000000e-01  6.2500000000000000e-02  0.0000000000000000e+00   4.3750000000000000e-01  6.2500000000000000e-02  0.0000000000000000e+00   4.6875000000000000e-01  6.2500000000000000e-02  0.0000000000000000e+00   5.0000000000000000e-01  6.2500000000000000e-02  0.0000000000000000e+00   5.3125000000000000e-01  6.2500000000000000e-02  0.0000000000000000e+00   5.6250000000000000e-01  6.2500000000000000e-02  0.0000000000000000e+00   5.9375000000000000e-01  6.2500000000000000e-02  0.0000000000000000e+00   6.2500000000000000e-01  6.2500000000000000e-02  0.0000000000000000e+00   6.5625000000000000e-01  6.2500000000000000e-02  0.0000000000000000e+00   6.8750000000000000e-01  6.2500000000000000e-02  0.0000000000000000e+00   7.1875000000000000e-01  6.2500000000000000e-02  0.0000000000000000e+00   7.5000000000000000e-01  6.2500000000000000e-02  0.0000000000000000e+00   7.8125000000000000e-01  6.2500000000000000e-02  0.0000000000000000e+00   8.1250000000000000e-01  6.2500000000000000e-02  0.0000000000000000e+00   8.4375000000000000e-01  6.2500000000000000e-02  0.0000000000000000e+00   8.7500000000000000e-01  6.2500000000000000e-02  0.0000000000000000e+00   9.0625000000000000e-01  6.2500000000000000e-02  0.0000000000000000e+00   9.3750000000000000e-01  6.2500000000000000e-02  0.0000000000000000e+00   9.6875000000000000e-01  6.2500000000000000e-02  0.0000000000000000e+00   1.0000000000000000e+00  6.2500000000000000e-02  0.0000000000000000e+00   0.0000000000000000e+00  9.3750000000000000e-02  0.0000000000000000e+00   3.1250000000000000e-02  9.3750000000000000e-02  0.0000000000000000e+00   6.2500000000000000e-02  9.3750000000000000e-02  0.0000000000000000e+00   9.3750000000000000e-02  9.3750000000000000e-02  0.0000000000000000e+00   1.2500000000000000e-01  9.3750000000000000e-02  0.0000000000000000e+00   1.5625000000000000e-01  9.3750000000000000e-02  0.0000000000000000e+00   1.8750000000000000e-01  9.3750000000000000e-02  0.0000000000000000e+00   2.1875000000000000e-01  9.3750000000000000e-02  0.0000000000000000e+00   2.5000000000000000e-01  9.3750000000000000e-02  0.0000000000000000e+00   2.8125000000000000e-01  9.3750000000000000e-02  0.0000000000000000e+00   3.1250000000000000e-01  9.3750000000000000e-02  0.0000000000000000e+00   3.4375000000000000e-01  9.3750000000000000e-02  0.0000000000000000e+00   3.7500000000000000e-01  9.3750000000000000e-02  0.0000000000000000e+00   4.0625000000000000e-01  9.3750000000000000e-02  0.0000000000000000e+00   4.3750000000000000e-01  9.3750000000000000e-02  0.0000000000000000e+00   4.6875000000000000e-01  9.3750000000000000e-02  0.0000000000000000e+00   5.0000000000000000e-01  9.3750000000000000e-02  0.0000000000000000e+00   5.3125000000000000e-01  9.3750000000000000e-02  0.0000000000000000e+00   5.6250000000000000e-01  9.3750000000000000e-02  0.0000000000000000e+00   5.9375000000000000e-01  9.3750000000000000e-02  0.0000000000000000e+00   6.2500000000000000e-01  9.3750000000000000e-02  0.0000000000000000e+00   6.5625000000000000e-01  9.3750000000000000e-02  0.0000000000000000e+00   6.8750000000000000e-01  9.3750000000000000e-02  0.0000000000000000e+00   7.1875000000000000e-01  9.3750000000000000e-02  0.0000000000000000e+00   7.5000000000000000e-01  9.3750000000000000e-02  0.0000000000000000e+00   7.8125000000000000e-01  9.3750000000000000e-02  0.0000000000000000e+00   8.1250000000000000e-01  9.3750000000000000e-02  0.0000000000000000e+00   8.4375000000000000e-01  9.3750000000000000e-02  0.0000000000000000e+00   8.7500000000000000e-01  9.3750000000000000e-02  0.0000000000000000e+00   9.0625000000000000e-01  9.3750000000000000e-02  0.0000000000000000e+00   9.3750000000000000e-01  9.3750000000000000e-02  0.0000000000000000e+00   9.6875000000000000e-01  9.3750000000000000e-02  0.0000000000000000e+00   1.0000000000000000e+00  9.3750000000000000e-02  0.0000000000000000e+00   0.0000000000000000e+00  1.2500000000000000e-01  0.0000000000000000e+00   3.1250000000000000e-02  1.2500000000000000e-01  0.0000000000000000e+00  
[...]
<PointData Scalars="scalars">
<DataArray type="Float64" Name="Solution Component 0" Format="ascii">  0.0000000000000000e+00   0.0000000000000000e+00   0.0000000000000000e+00   0.0000000000000000e+00   0.0000000000000000e+00   0.0000000000000000e+00   0.0000000000000000e+00   0.0000000000000000e+00   0.0000000000000000e+00   0.0000000000000000e+00   0.0000000000000000e+00   0.0000000000000000e+00   0.0000000000000000e+00   0.0000000000000000e+00   0.0000000000000000e+00   0.0000000000000000e+00   0.0000000000000000e+00   0.0000000000000000e+00   0.0000000000000000e+00   0.0000000000000000e+00   0.0000000000000000e+00   0.0000000000000000e+00   0.0000000000000000e+00   0.0000000000000000e+00   0.0000000000000000e+00   0.0000000000000000e+00   0.0000000000000000e+00   0.0000000000000000e+00   0.0000000000000000e+00   0.0000000000000000e+00   0.0000000000000000e+00   0.0000000000000000e+00   0.0000000000000000e+00   0.0000000000000000e+00  -4.2551246122548960e-03  -1.3388625636798693e-02  -1.3999436636285582e-02  -9.9714558846594418e-03  -3.4732990769725841e-03   3.7124200929164659e-03   9.7655254341067407e-03   1.2529960110324452e-02   4.7246228853272697e-02   3.7940202268708624e-02   1.9702251878377854e-02   2.0608628350053861e-03  -1.2123729035155758e-02  -2.1760585982848610e-02  -2.4641958423117748e-02  -2.6025789963226392e-02  -1.9151496720468536e-02  -2.2181074972132085e-03   1.6530889451490199e-02   3.1435196371535766e-02   4.0677961831742930e-02   4.7795897961559267e-02   5.0989775830460805e-02   3.9793119309364480e-02   1.7225401550332302e-02  -1.2010988441230117e-02  -3.1258699097644185e-02  -5.3220833439905614e-02  -7.3572546740492226e-02  -5.7295218211876602e-02  -2.7220185723726906e-02   5.8518989230865181e-23   0.0000000000000000e+00  -6.0434520284655992e-04   2.9193836698015466e-02   5.6322459457227393e-02   7.0939062900627861e-02   6.9625010377898949e-02   5.2205592500879971e-02   1.8830431526972041e-02   2.5124193702349466e-02   8.5678535951882531e-02   3.5498362218969445e-02  -4.2144774473553467e-03  -3.2022168531294568e-02  -4.7691973094639795e-02  -5.1119101141415983e-02  -5.3698487839146790e-02  -5.4234793842359109e-02  -2.9388407418292444e-02   1.0289351628616954e-02   4.7667730036637865e-02   6.8910802970760882e-02   7.9947201180517818e-02   1.1157292394875698e-01   1.1918639340922749e-01   8.6131657032844616e-02   3.4222612482065831e-02  -3.9500959249446660e-02  -6.6112488416042350e-02  -1.0631895009574779e-01  -1.5184467472128790e-01  -1.1675753440457437e-01  -5.2797323472701142e-02   5.7986455042522868e-22   0.0000000000000000e+00   1.0267523861909635e-04   6.8859594737570612e-02   1.2522506112345291e-01   1.5138344269453397e-01   1.4269441624619281e-01   1.0089796019601442e-01   2.7675967051910721e-02   3.8213272993175909e-02   1.3136850435445963e-01   3.9694184316211849e-02  -2.5690068618717646e-02  -6.6790746101490120e-02  -8.5875036737827024e-02  -8.3317290443949130e-02  -8.5044804464039850e-02  -9.1834761757186162e-02  -4.8201784976889213e-02   1.8611474141568364e-02   7.8937403061920305e-02   1.0630481237429332e-01   1.1194466761194397e-01   1.7074073604444540e-01   1.8855802379566153e-01   1.3619625867822688e-01   5.6024364141852079e-02  -6.6544944427300495e-02  -1.0254167332165745e-01  -1.5868187337693113e-01  -2.2773442592294602e-01  -1.7660561418016005e-01  -7.9323395765375462e-02  -3.6087591261531164e-25   0.0000000000000000e+00  -1.3326159356717945e-03   1.0216001562135318e-01   1.8640622558659348e-01   2.2494915021308434e-01   2.1093807231759099e-01   1.4727026496787465e-01   3.6595524158885770e-02   5.1614991709198234e-02   1.7862275420788751e-01   4.7962142550769915e-02  -4.3402724603504861e-02  -9.8792341509379683e-02  -1.2245802888006266e-01  -1.1546821111341435e-01  -1.1693705711641626e-01  -1.3067679988218273e-01  -6.9889713211185908e-02   2.4042247156709311e-02   1.0779698129061435e-01   1.4149498914436257e-01   1.4008727399522158e-01   2.2594795031503537e-01   2.5571783420997896e-01   1.8588598405658699e-01   7.8535663843169248e-02  -9.1500661499257965e-02  -1.3778212194452938e-01  -2.0884699528250059e-01  -2.9976767879595989e-01  -2.3417617417474351e-01  -1.0492235289728556e-01  -4.3295223075938069e-24   0.0000000000000000e+00  -3.7355784843747667e-03   1.3002423384343342e-01   2.3939710980728982e-01   2.8999927803267977e-01   2.7235139564739563e-01   1.8983405675344853e-01   4.5628551031924272e-02   6.5042215301880618e-02   2.2435359169990909e-01   5.8263228824040614e-02  -5.7630750637102039e-02  -1.2705602958098119e-01  -1.5591215115383628e-01  -1.4618939913274773e-01  -1.4838649472877480e-01  -1.6875443077239902e-01  -9.2141263653412464e-02   2.7569809509202053e-02   1.3377049475572650e-01   1.7346748493558248e-01   1.6423809480132170e-01   2.7692402833737145e-01   3.1935308621482944e-01   2.3332137021699390e-01   1.0037662372892583e-01  -1.1432119648810123e-01  -1.7056934544265520e-01  -2.5560098913027191e-01  -3.6698053588459939e-01  -2.8802267568024437e-01  -1.2857844017965711e-01   1.2559223933917045e-23   0.0000000000000000e+00  -6.4135594682779885e-03   1.5367533775581080e-01   2.8509789967413696e-01   3.4671013806669859e-01   3.2651543943567174e-01   2.2802685896063418e-01   5.4691779701648902e-02   7.8230970844252082e-02   2.6691146783226527e-01   6.9245271858794297e-02  -6.8944047222376320e-02  -1.5145588607789279e-01  -1.8569371412431604e-01  -1.7478396180735381e-01  -1.7871646462109639e-01  -2.0521158877653800e-01  -1.1396429592310538e-01   2.9705744987490762e-02   1.5669726477338028e-01   2.0174141793648542e-01   1.8416311647911063e-01   3.2327716170226645e-01   3.7868662674057302e-01   2.7766010917984923e-01   1.2099083503324590e-01  -1.3503039951467705e-01  -2.0035328680556866e-01  -2.9821288813182623e-01  -4.2867903425969195e-01  -3.3742961762928786e-01  -1.4991996144930014e-01  -7.6589007020647404e-23   0.0000000000000000e+00  -9.0221472387863998e-03   1.7392992702625637e-01   3.2441916377790131e-01   3.9570852950717789e-01   3.7364376384390552e-01   2.6175879945022723e-01   6.3629125326205016e-02   9.0932701016275416e-02   3.0540746163149041e-01   8.0068186933852994e-02  -7.7846390479835104e-02  -1.7213072282027075e-01  -2.1165859216553132e-01  -2.0088523205589331e-01  -2.0743550221096180e-01  -2.3946635989928000e-01  -1.3481885068905836e-01   3.0719253222843731e-02   1.7650218103156970e-01   2.2612253309042227e-01   1.9989450616976331e-01   3.6472899952335897e-01   4.3319466652923966e-01   3.1848726087374257e-01   1.4015739000066688e-01  -1.5359047390633668e-01  -2.2687347276236389e-01  -3.3628561165942755e-01  -4.8440428387088286e-01  -3.8202545355982431e-01  -1.6883832288384543e-01   1.2629652972726312e-22   0.0000000000000000e+00  -1.1403000584835560e-02   1.9124358253021342e-01   3.5800101566996945e-01   4.3758155648466474e-01   4.1409656528271438e-01   2.9110787538705690e-01   7.2252738019723955e-02   1.0291340183313895e-01   3.3935362383835177e-01   9.0217059385718043e-02  -8.4722867992028869e-02  -1.8928814667728494e-01  -2.3383140843716427e-01  -2.2429286408236918e-01  -2.3417456872371750e-01  -2.7107077627652210e-01  -1.5433946446880714e-01   3.0790446532934987e-02   1.9318129973296982e-01   2.4658325073369816e-01   2.1163770024357065e-01   4.0112917826157601e-01   4.8250791074726995e-01   3.5556347079576817e-01   1.5778886871096601e-01  -1.6992671734696224e-01  -2.4999185821005090e-01  -3.6960556712079345e-01  -5.3384986136006662e-01  -4.2159341969909897e-01  -1.8531390315841506e-01  -2.6338493369046518e-22   0.0000000000000000e+00  -1.3488473207668517e-02   2.0584910094501344e-01   3.8623899023007724e-01   4.7276017454262576e-01   4.4819490094326658e-01   3.1617837990062192e-01   8.0374619051401183e-02   1.1396137612850929e-01   3.6848123770749563e-01   9.9373474756765251e-02  -8.9860712197608023e-02  -2.0314006332696138e-01  -2.5230498787345890e-01  -2.4489066866507381e-01  -2.5864328246789758e-01  -2.9967754788824724e-01  -1.7225056413072365e-01   3.0069817593689090e-02   2.0679129847728303e-01   2.6319361537893210e-01   2.1967281134012767e-01   4.3241354379010055e-01   5.2635189285640704e-01   3.8871891387471030e-01   1.7383705586725579e-01  -1.8395796235148193e-01  -2.6963057756538289e-01  -3.9805484140503167e-01  -5.7679679952365281e-01  -4.5598700718782181e-01  -1.9935152428327219e-01   3.7139392663103444e-23   0.0000000000000000e+00  -1.5253884436958777e-02   2.1785923509820657e-01   4.0936507966548707e-01   5.0153278612479169e-01   4.7617825646655404e-01   3.3705435023176122e-01   8.7825902096775890e-02   1.2389468467637063e-01   3.9265086193578885e-01   1.0733921056031664e-01  -9.3476047572029333e-02  -2.1388166333309389e-01  -2.6719385445090771e-01  -2.6260386910135419e-01  -2.8060069966306633e-01  -3.2501695048112694e-01  -1.8833585389632423e-01   2.8694324740816381e-02   2.1742960960215113e-01   2.7607659767320192e-01   2.2429690971705463e-01   4.5856451318620944e-01   5.6450868915354568e-01   4.1780827672401538e-01   1.8825209805449658e-01  -1.9561654730050290e-01  -2.8574991055477789e-01  -4.2156968014879631e-01  -6.1307956640892369e-01  -4.8509541285860830e-01  -2.1095993081846745e-01  -6.9398522534247782e-24   0.0000000000000000e+00  -1.6695595766483211e-02   2.2732774378292825e-01   4.2751679117368202e-01   5.2408989733053901e-01   4.9821646823427779e-01   3.5379527537472588e-01   9.4465467242256171e-02   1.3256473646609296e-01   4.1180754911114781e-01   1.1399343172066159e-01  -9.5733425195385066e-02  -2.2168545063257289e-01  -2.7861303757739903e-01  -2.7737765633678557e-01  -2.9983855706175794e-01  -3.4687703634423256e-01  -2.0242266463072614e-01   2.6789716898788538e-02   2.2521513170837504e-01   2.8537929638831094e-01   2.2579594927719554e-01   4.7958649375807189e-01   5.9679551817943499e-01   4.4269390340444920e-01   2.0096873957800476e-01  -2.0485889479498573e-01  -2.9834108788823283e-01  -4.4012385097910084e-01  -6.4257343315475313e-01  -5.0883262646899063e-01  -2.2014794762019679e-01  -1.6046503874471583e-24   0.0000000000000000e+00  -1.7821516271193411e-02   2.3428284898628685e-01   4.4078453045020033e-01   5.4056652845328690e-01   5.1443561983508490e-01   3.6644605482270737e-01   1.0018143413964517e-01   1.3985613516425047e-01   4.2595789706643161e-01   1.1926859759419910e-01  -9.6759122869910494e-02  -2.2670158856319855e-01  -2.8667014611417485e-01  -2.8916794581754213e-01  -3.1617352628765905e-01  -3.6508936926409691e-01  -2.1437200473484200e-01   2.4470360677746578e-02   2.3027488468090937e-01   2.9125633883495239e-01   2.2443413256698821e-01   4.9549485366899176e-01   6.2305580634022872e-01   4.6324272559207480e-01   2.1190555558827079e-01  -2.1166982726063335e-01  -3.0742420701651013e-01  -4.5372364764401579e-01  -6.6519305654972016e-01  -5.2713730692295235e-01  -2.2692673241555433e-01   1.4380500646970475e-25   0.0000000000000000e+00  -1.8647042944652661e-02   2.3874528411097243e-01   4.4924197143946737e-01   5.5107471560178889e-01   5.2494293046744755e-01   3.7504926332553212e-01   1.0488884201294560e-01   1.4568412967047875e-01   4.3515783878695563e-01   1.2313620075234875e-01  -9.6650965335210309e-02  -2.2906168256577197e-01  -2.9146491124831625e-01  -2.9793916213424670e-01  -3.2944507096963416e-01  -3.7952059855527526e-01  -2.2407221104623812e-01   2.1839604357290938e-02   2.3273723430642143e-01   2.9386246963200080e-01   2.2045299213622327e-01   5.0631411528665737e-01   6.4315844247503662e-01   4.7932987681068628e-01   2.2096977774966922e-01  -2.1606335753396561e-01  -3.1304782708672224e-01  -4.6240792924094903e-01  -6.8089602011317574e-01  -5.3997712463712688e-01  -2.3131395401210550e-01   3.0318732100404149e-22   0.0000000000000000e+00  -1.9193131324855773e-02   2.4073846815246397e-01   4.5296549227993460e-01   5.5572681240706723e-01   5.2984672533891264e-01   3.7965576368725684e-01   1.0852584154112450e-01   1.4999100986413350e-01   4.3950604967999485e-01   1.2559764066681775e-01  -9.5486458464803040e-02  -2.2888464378361947e-01  -2.9309295539814106e-01  -3.0366592313818502e-01  -3.3951635659463553e-01  -3.9006872566770429e-01  -2.3143536506297158e-01   1.8990960846881271e-02   2.3273025651360532e-01   2.9335147685325147e-01   2.1407561474673356e-01   5.1208156586351905e-01   6.5700180556292287e-01   4.9084524513938094e-01   2.2806398475606787e-01  -2.1808182114447777e-01  -3.1528918119482963e-01  -4.6625020566503611e-01  -6.8968812492262532e-01  -5.4735452215978053e-01  -2.3333822942528079e-01  -7.4472516525455319e-24   0.0000000000000000e+00  -1.9485074668288211e-02   2.4029488895502416e-01   4.5204717492260810e-01   5.5465213134663827e-01   5.2927159849306771e-01   3.8033299800878212e-01   1.1104974756440873e-01   1.5274237895098677e-01   4.3914057870206158e-01   1.2667791019382091e-01  -9.3330042230294882e-02  -2.2628369208861962e-01  -2.9165178159505706e-01  -3.0633671086877479e-01  -3.4627659123892213e-01  -3.9666259462867820e-01  -2.3639578055465274e-01   1.6009733252405883e-02   2.3038340590967749e-01   2.8987900401253303e-01   2.0551329338961852e-01   5.1285359703581856e-01   6.6452016783424828e-01   4.9770097994914730e-01   2.3309293168923773e-01  -2.1779439476151174e-01  -3.1425467460857359e-01  -4.6536142900160921e-01  -6.9162890363618112e-01  -5.4931248122318188e-01  -2.3304318381106573e-01  -1.9645715909525281e-25   0.0000000000000000e+00  -1.9551433211533919e-02   2.3746074222138511e-01   4.4660417262067315e-01   5.4800922030130306e-01   5.2336992146651840e-01   3.7717134909794886e-01   1.1243358349974610e-01   1.5392380421082177e-01   4.3423747774517329e-01   1.2642095592408614e-01  -9.0239722103503339e-02  -2.2137377939478103e-01  -2.8724770929945131e-01  -3.0595838797639152e-01  -3.4964388742149927e-01  -3.9926336587274686e-01  -2.3890995029655707e-01   1.2974676176956981e-02   2.2583091213463991e-01   2.8360735745908389e-01   1.9497299535532495e-01   5.0871304948500384e-01   6.6569094249006378e-01   4.9983896484136353e-01   2.3596986632955275e-01  -2.1529543818700775e-01  -3.1008046591384592e-01  -4.5989281698228529e-01  -6.8683662987983496e-01  -5.4593966949118100e-01  -2.3049093137133098e-01  -2.4629483108174702e-24   0.0000000000000000e+00  -1.9422904613355156e-02   2.3229980014437174e-01   4.3678605843626461e-01   5.3599540130481460e-01   5.1233083288079029e-01   3.7028913080780962e-01   1.1266330071458963e-01   1.5353802454099655e-01   4.2501067176770113e-01   1.2488610278176469e-01  -8.6273132313177708e-02  -2.1427892358610007e-01  -2.8000297000844970e-01  -3.0256091367752536e-01  -3.4956820140821643e-01  -3.9786709523258451e-01  -2.3895747848932192e-01   9.9593838209802634e-03   2.1921573714874540e-01   2.7471096131263217e-01   1.8266469891559137e-01   4.9977652375991127e-01   6.6054188120734114e-01   4.9723784891850092e-01   2.3662224333415577e-01  -2.1070271337185306e-01  -3.0293288829933163e-01  -4.5003827547025183e-01  -6.7549243054467278e-01  -5.3737468369958741e-01  -2.2576494535219774e-01  -1.9645715909525281e-25   0.0000000000000000e+00  -1.9131045376430591e-02   2.2489696038185636e-01   4.2278104587099991e-01   5.1885460994253907e-01   4.9638754818254971e-01   3.5983664436465684e-01   1.1173561283020855e-01   1.5160268900870513e-01   4.1171248739066524e-01   1.2214514662894760e-01  -8.1493046053250709e-02  -2.0513912736073980e-01  -2.7006249889486195e-01  -2.9620191754151154e-01  -3.4603417466879260e-01  -3.9250784719558862e-01  -2.3654266376199307e-01   7.0331922031307368e-03   2.1069328475616611e-01   2.6338153543328541e-01   1.6880803853376738e-01   4.8620105317735540e-01   6.4915774721214670e-01   4.8991956061953357e-01   2.3499702724805854e-01  -2.0415532319918223e-01  -2.9300841144234274e-01  -4.3603605416474289e-01  -6.5784321244664856e-01  -5.2380921457931806e-01  -2.1897232629706778e-01  -7.4472516525455319e-24   0.0000000000000000e+00  -1.8706785443022678e-02   2.1536168169175340e-01   4.0482156081190462e-01   4.9688415186211593e-01   4.7582352063256100e-01   3.4599955915559177e-01   1.0965627374599618e-01   1.4814849104884753e-01   3.9463431684749972e-01   1.1827979769753973e-01  -7.5972359888537164e-02  -1.9411668065996165e-01  -2.5760014557406735e-01  -2.8697094991899352e-01  -3.3906382331179996e-01  -3.8326095600299448e-01  -2.3169647959393230e-01   4.2614657449044488e-03   2.0043430951146354e-01   2.4983235163571560e-01   1.5363789938161221e-01   4.6818977688088020e-01   6.3168623454572914e-01   4.7795539910757329e-01   2.3106589076758202e-01  -1.9581112563866304e-01  -2.8053281008601461e-01  -4.1816926164175333e-01  -6.3420309304163303e-01  -5.0548992997953268e-01  -2.1024544658042327e-01   3.0318732100404149e-22   0.0000000000000000e+00  -1.8178695441040688e-02   2.0383138867803796e-01   3.8318939913044303e-01   4.7044069227708618e-01   4.5097771568688388e-01   3.2900170389413397e-01   1.0643859482416866e-01   1.4321751923357251e-01   3.7410690414658093e-01   1.1337918782354774e-01  -6.9798583281033916e-02  -1.8140169468386530e-01  -2.4282409736242505e-01  -2.7499327259363349e-01  -3.2871902588553864e-01  -3.7024608853187796e-01  -2.2447868931886167e-01   1.7052285850520509e-03   1.8862663648969955e-01   2.3430107729540706e-01   1.3740867667248657e-01   4.4599635336398202e-01   6.0834300897819482e-01   4.6147184403690361e-01   2.2483060961015786e-01  -1.8584339487717375e-01  -2.6575920612624698e-01  -3.9676482122925050e-01  -6.0495292226225950e-01  -4.8271874797109665e-01  -1.9974287001315402e-01   1.4380500646970475e-25   0.0000000000000000e+00  -1.7571006850996659e-02   1.9047483438931087e-01   3.5822051933535576e-01   4.3994553660676433e-01   4.2224899935061611e-01   3.0910718029283335e-01   1.0210200875809321e-01   1.3686164786012550e-01   3.5049971789766088e-01   1.0753716759062709e-01  -6.3077840785569134e-02  -1.6721669463062316e-01  -2.2598128293705652e-01  -2.6043299826335203e-01  -3.1510365540485175e-01  -3.5362964729207075e-01  -2.1497970624031135e-01  -5.7977449362402764e-04   1.7547540747299181e-01   2.1705078067474043e-01   1.2039691640786701e-01   4.1992786701231150e-01   5.7941573401692492e-01   4.4065613802966486e-01   2.1632881032213161e-01  -1.7443664119782001e-01  -2.4896470723067476e-01  -3.7219039211091742e-01  -5.7053732343204178e-01  -4.5585097284461462e-01  -1.8764933314257412e-01   7.4535309878820715e-24   0.0000000000000000e+00  -1.6901477706017336e-02   1.7549529022483015e-01   3.3030930844215811e-01   4.0588895352022575e-01   3.9009931735852116e-01   2.8662149944421378e-01   9.6670532984144283e-02   1.2914083366736098e-01   3.2421881408956610e-01   1.0084912002839794e-01  -5.5938347660253872e-02  -1.5182002422927196e-01  -2.0736042457004850e-01  -2.4349523773048107e-01  -2.9836497063332951e-01  -3.3362576035487901e-01  -2.0332154052066723e-01  -2.5443189966436828e-03   1.6120164442573290e-01   1.9836869512955380e-01   1.0290204602127843e-01   3.9034596521364451e-01   5.4526682397147275e-01   4.1576141202748262e-01   2.0563984854391637e-01  -1.6178183214041014e-01  -2.3044550656184101e-01  -3.4484873309002861e-01  -5.3145849426038505e-01  -4.2529052243208931e-01  -1.7417445482235383e-01   1.7406811331158518e-23   0.0000000000000000e+00  -1.6179363805351309e-02   1.5913324722396541e-01   2.9991183095786172e-01   3.6883281736572737e-01   3.5505485555833699e-01   2.6189113974468570e-01   9.0171072715844930e-02   1.2012128438104552e-01   2.9570247400438820e-01   9.3408001071273034e-02  -4.8533256144478697e-02  -1.3550770193588127e-01  -1.8729324586492838e-01  -2.2442665801209005e-01  -2.7869347647473697e-01  -3.1049460025149761e-01  -1.8965673596748073e-01  -4.1467234228853653e-03   1.4603898055656589e-01   1.7856237230429542e-01   8.5244990803348575e-02   3.5766602689918897e-01   5.0633441650593525e-01   3.8711047235918972e-01   1.9288977828485657e-01  -1.4807188078528605e-01  -2.1051053969357278e-01  -3.1516896076928885e-01  -4.8826584968525988e-01  -3.9148125361246805e-01  -1.5954976669880203e-01  -3.7875938203361357e-26   0.0000000000000000e+00  -1.5403999934956664e-02   1.4166802737056408e-01   2.6754699677933536e-01  