<VTKFile type="UnstructuredGrid" version="0.1" byte_order="LittleEndian">
<UnstructuredGrid>
<Piece NumberOfPoints="1089" NumberOfCells="2048">
<Points>
<DataArray type="Float64" NumberOfComponents="3" Format="ascii">  0.0000000000000000e+00  0.0000000000000000e+00  0.0000000000000000e+00   3.1250000000000000e-02  0.0000000000000000e+00  0.0000000000000000e+00   6.2500000000000000e-02  0.0000000000000000e+00  0.0000000000000000e+00   9.3750000000000000e-02  0.0000000000000000e+00  0.0000000000000000e+00   1.2500000000000000e-01  0.0000000000000000e+00  0.0000000000000000e+00   1.5625000000000000e-01  0.0000000000000000e+00  0.0000000000000000e+00   1.8750000000000000e-01  0.0000000000000000e+00  0.0000000000000000e+00   2.1875000000000000e-01  0.0000000000000000e+00  0.0000000000000000e+00   2.5000000000000000e-01  0.0000000000000000e+00  0.0000000000000000e+00   2.8125000000000000e-01  0.0000000000000000e+00  0.0000000000000000e+00   3.1250000000000000e-01  0.0000000000000000e+00  0.0000000000000000e+00   3.4375000000000000e-01  0.0000000000000000e+00  0.0000000000000000e+00   3.7500000000000000e-01  0.0000000000000000e+00  0.0000000000000000e+00   4.0625000000000000e-01  0.0000000000000000e+00  0.0000000000000000e+00   4.3750000000000000e-01  0.0000000000000000e+00  0.0000000000000000e+00   4.6875000000000000e-01  0.0000000000000000e+00  0.0000000000000000e+00   5.0000000000000000e-01  0.0000000000000000e+00  0.0000000000000000e+00   5.3125000000000000e-01  0.0000000000000000e+00  0.0000000000000000e+00   5.6250000000000000e-01  0.0000000000000000e+00  0.0000000000000000e+00   5.9375000000000000e-01  0.0000000000000000e+00  0.0000000000000000e+00   6.2500000000000000e-01  0.0000000000000000e+00  0.0000000000000000e+00   6.5625000000000000e-01  0.0000000000000000e+00  0.0000000000000000e+00   6.8750000000000000e-01  0.0000000000000000e+00  0.0000000000000000e+00   7.1875000000000000e-01  0.0000000000000000e+00  0.0000000000000000e+00   7.5000000000000000e-01  0.0000000000000000e+00  0.0000000000000000e+00   7.8125000000000000e-01  0.0000000000000000e+00  0.0000000000000000e+00   8.1250000000000000e-01  0.0000000000000000e+00  0.0000000000000000e+00   8.4375000000000000e-01  0.0000000000000000e+00  0.0000000000000000e+00   8.7500000000000000e-01  0.0000000000000000e+00  0.0000000000000000e+00   9.0625000000000000e-01  0.0000000000000000e+00  0.0000000000000000e+00   9.3750000000000000e-01  0.0000000000000000e+00  0.0000000000000000e+00   9.6875000000000000e-01  0.0000000000000000e+00  0.0000000000000000e+00   1.0000000000000000e+00  0.0000000000000000e+00  0.0000000000000000e+00   0.0000000000000000e+00  3.1250000000000000e-02  0.0000000000000000e+00   3.1250000000000000e-02  3.1250000000000000e-02  0.0000000000000000e+00   6.2500000000000000e-02  3.1250000000000000e-02  0.0000000000000000e+00   9.3750000000000000e-02  3.1250000000000000e-02  0.0000000000000000e+00   1.2500000000000000e-01  3.1250000000000000e-02  0.0000000000000000e+00   1.5625000000000000e-01  3.1250000000000000e-02  0.0000000000000000e+00   1.8750000000000000e-01  3.1250000000000000e-02  0.0000000000000000e+00   2.1875000000000000e-01  3.1250000000000000e-02  0.0000000000000000e+00   2.5000000000000000e-01  3.1250000000000000e-02  0.0000000000000000e+00   2.8125000000000000e-01  3.1250000000000000e-02  0.0000000000000000e+00   3.1250000000000000e-01  3.1250000000000000e-02  0.0000000000000000e+00   3.4375000000000000e-01  3.1250000000000000e-02  0.0000000000000000e+00   3.7500000000000000e-01  3.1250000000000000e-02  0.0000000000000000e+00   4.0625000000000000e-01  3.1250000000000000e-02  0.0000000000000000e+00   4.3750000000000000e-01  3.1250000000000000e-02  0.0000000000000000e+00   4.6875000000000000e-01  3.1250000000000000e-02  0.0000000000000000e+00   5.0000000000000000e-01  3.1250000000000000e-02  0.0000000000000000e+00   5.3125000000000000e-01  3.1250000000000000e-02  0.0000000000000000e+00   5.6250000000000000e-01  3.1250000000000000e-02  0.0000000000000000e+00   5.9375000000000000e-01  3.1250000000000000e-02  0.0000000000000000e+00   6.2500000000000000e-01  3.1250000000000000e-02  0.0000000000000000e+00   6.5625000000000000e-01  3.1250000000000000e-02  0.0000000000000000e+00   6.8750000000000000e-01  3.1250000000000000e-02  0.0000000000000000e+00   7.1875000000000000e-01  3.1250000000000000e-02  0.0000000000000000e+00   7.5000000000000000e-01  3.1250000000000000e-02  0.0000000000000000e+00   7.8125000000000000e-01  3.1250000000000000e-02  0.0000000000000000e+00   8.1250000000000000e-01  3.1250000000000000e-02  0.0000000000000000e+00   8.4375000000000000e-01  3.1250000000000000e-02  0.0000000000000000e+00   8.7500000000000000e-01  3.1250000000000000e-02  0.0000000000000000e+00   9.0625000000000000e-01  3.1250000000000000e-02  0.0000000000000000e+00   9.3750000000000000e-01  3.1250000000000000e-02  0.0000000000000000e+00   9.6875000000000000e-01  3.1250000000000000e-02  0.0000000000000000e+00   1.0000000000000000e+00  3.1250000000000000e-02  0.0000000000000000e+00   0.0000000000000000e+00  6.2500000000000000e-02  0.0000000000000000e+00   3.1250000000000000e-02  6.2500000000000000e-02  0.0000000000000000e+00   6.2500000000000000e-02  6.2500000000000000e-02  0.0000000000000000e+00   9.3750000000000000e-02  6.2500000000000000e-02  0.0000000000000000e+00   1.2500000000000000e-01  6.2500000000000000e-02  0.0000000000000000e+00   1.5625000000000000e-01  6.2500000000000000e-02  0.0000000000000000e+00   1.8750000000000000e-01  6.2500000000000000e-02  0.0000000000000000e+00   2.1875000000000000e-01  6.2500000000000000e-02  0.0000000000000000e+00   2.5000000000000000e-01  6.2500000000000000e-02  0.0000000000000000e+00   2.8125000000000000e-01  6.2500000000000000e-02  0.0000000000000000e+00   3.1250000000000000e-01  6.2500000000000000e-02  0.0000000000000000e+00   3.4375000000000000e-01  6.2500000000000000e-02  0.0000000000000000e+00   3.7500000000000000e-01  6.2500000000000000e-02  0.0000000000000000e+00   4.0625000000000000e-01  6.2500000000000000e-02  0.0000000000000000e+00   4.3750000000000000e-01  6.2500000000000000e-02  0.0000000000000000e+00   4.6875000000000000e-01  6.2500000000000000e-02  0.0000000000000000e+00   5.0000000000000000e-01  6.2500000000000000e-02  0.0000000000000000e+00   5.3125000000000000e-01  6.2500000000000000e-02  0.0000000000000000e+00   5.6250000000000000e-01  6.2500000000000000e-02  0.0000000000000000e+00   5.9375000000000000e-01  6.2500000000000000e-02  0.0000000000000000e+00   6.2500000000000000e-01  6.2500000000000000e-02  0.0000000000000000e+00   6.5625000000000000e-01  6.2500000000000000e-02  0.0000000000000000e+00   6.8750000000000000e-01  6.2500000000000000e-02  0.0000000000000000e+00   7.1875000000000000e-01  6.2500000000000000e-02  0.0000000000000000e+00   7.5000000000000000e-01  6.2500000000000000e-02  0.0000000000000000e+00   7.8125000000000000e-01  6.2500000000000000e-02  0.0000000000000000e+00   8.1250000000000000e-01  6.2500000000000000e-02  0.0000000000000000e+00   8.4375000000000000e-01  6.2500000000000000e-02  0.0000000000000000e+00   8.7500000000000000e-01  6.2500000000000000e-02  0.0000000000000000e+00   9.0625000000000000e-01  6.2500000000000000e-02  0.0000000000000000e+00   9.3750000000000000e-01  6.2500000000000000e-02  0.0000000000000000e+00   9.6875000000000000e-01  6.2500000000000000e-02  0.0000000000000000e+00   1.0000000000000000e+00  6.2500000000000000e-02  0.0000000000000000e+00   0.0000000000000000e+00  9.3750000000000000e-02  0.0000000000000000e+00   3.1250000000000000e-02  9.3750000000000000e-02  0.0000000000000000e+00   6.2500000000000000e-02  9.3750000000000000e-02  0.0000000000000000e+00   9.3750000000000000e-02  9.3750000000000000e-02  0.0000000000000000e+00   1.2500000000000000e-01  9.3750000000000000e-02  0.0000000000000000e+00   1.5625000000000000e-01  9.3750000000000000e-02  0.0000000000000000e+00   1.8750000000000000e-01  9.3750000000000000e-02  0.0000000000000000e+00   2.1875000000000000e-01  9.3750000000000000e-02  0.0000000000000000e+00   2.5000000000000000e-01  9.3750000000000000e-02  0.0000000000000000e+00   2.8125000000000000e-01  9.3750000000000000e-02  0.0000000000000000e+00   3.1250000000000000e-01  9.3750000000000000e-02  0.0000000000000000e+00   3.4375000000000000e-01  9.3750000000000000e-02  0.0000000000000000e+00   3.7500000000000000e-01  9.3750000000000000e-02  0.0000000000000000e+00   4.0625000000000000e-01  9.3750000000000000e-02  0.0000000000000000e+00   4.3750000000000000e-01  9.3750000000000000e-02  0.0000000000000000e+00   4.6875000000000000e-01  9.3750000000000000e-02  0.0000000000000000e+00   5.0000000000000000e-01  9.3750000000000000e-02  0.0000000000000000e+00   5.3125000000000000e-01  9.3750000000000000e-02  0.0000000000000000e+00   5.6250000000000000e-01  9.3750000000000000e-02  0.0000000000000000e+00   5.9375000000000000e-01  9.3750000000000000e-02  0.0000000000000000e+00   6.2500000000000000e-01  9.3750000000000000e-02  0.0000000000000000e+00   6.5625000000000000e-01  9.3750000000000000e-02  0.0000000000000000e+00   6.8750000000000000e-01  9.3750000000000000e-02  0.0000000000000000e+00   7.1875000000000000e-01  9.3750000000000000e-02  0.0000000000000000e+00   7.5000000000000000e-01  9.3750000000000000e-02  0.0000000000000000e+00   7.8125000000000000e-01  9.3750000000000000e-02  0.0000000000000000e+00   8.1250000000000000e-01  9.3750000000000000e-02  0.0000000000000000e+00   8.4375000000000000e-01  9.3750000000000000e-02  0.0000000000000000e+00   8.7500000000000000e-01  9.3750000000000000e-02  0.0000000000000000e+00   9.0625000000000000e-01  9.3750000000000000e-02  0.0000000000000000e+00   9.3750000000000000e-01  9.3750000000000000e-02  0.0000000000000000e+00   9.6875000000000000e-01  9.3750000000000000e-02  0.0000000000000000e+00   1.0000000000000000e+00  9.3750000000000000e-02  0.0000000000000000e+00   0.0000000000000000e+00  1.2500000000000000e-01  0.0000000000000000e+00   3.1250000000000000e-02  1.2500000000000000e-01  0.0000000000000000e+00  
[...]
<PointData Scalars="scalars">
<DataArray type="Float64" Name="Solution Component 0" Format="ascii">  0.0000000000000000e+00   0.0000000000000000e+00   0.0000000000000000e+00   0.0000000000000000e+00   0.0000000000000000e+00   0.0000000000000000e+00   0.0000000000000000e+00   0.0000000000000000e+00   0.0000000000000000e+00   0.0000000000000000e+00   0.0000000000000000e+00   0.0000000000000000e+00   0.0000000000000000e+00   0.0000000000000000e+00   0.0000000000000000e+00   0.0000000000000000e+00   0.0000000000000000e+00   0.0000000000000000e+00   0.0000000000000000e+00   0.0000000000000000e+00   0.0000000000000000e+00   0.0000000000000000e+00   0.0000000000000000e+00   0.0000000000000000e+00   0.0000000000000000e+00   0.0000000000000000e+00   0.0000000000000000e+00   0.0000000000000000e+00   0.0000000000000000e+00   0.0000000000000000e+00   0.0000000000000000e+00   0.0000000000000000e+00   0.0000000000000000e+00   0.0000000000000000e+00  -3.5828506217079163e-02  -2.7107733510611267e-02  -8.2964838223936032e-03   9.7011562693460826e-03   2.2991069053643315e-02   3.0310116395738856e-02   3.1687526473168033e-02   3.4726744747428408e-02   3.1912825797332976e-02   1.9518178279353197e-02   4.1721977786143517e-03  -8.2779206192292124e-03  -1.7108272826677866e-02  -2.8494521687372352e-02  -3.8564146376298805e-02  -3.3195964988490950e-02  -1.5601250737749005e-02   8.8193525316188608e-03   2.4239825938996009e-02   4.6624105896269842e-02   7.3411885924462184e-02   6.8269305887577694e-02   5.4144097561536854e-02   4.8123702706067806e-02   2.2158665602125271e-02  -1.9596248360425925e-02  -6.1060505953431946e-02  -8.8506423064860229e-02  -9.5149743066277159e-02  -8.0413017987752564e-02  -4.7324903516695410e-02  -2.9607948403339170e-22   0.0000000000000000e+00  -6.2173701687451108e-02  -1.1991965131506816e-02   2.9461625122373096e-02   5.8040976762631619e-02   7.1238944708797741e-02   6.8519554649906278e-02   6.7291960183785915e-02   7.1127133437664844e-02   5.4396122103615940e-02   2.3855593959337146e-02  -6.9391071394807680e-03  -2.3171762958173470e-02  -3.3472452133732344e-02  -7.4548617150509353e-02  -9.6365680762128328e-02  -7.4629065250575985e-02  -3.1915664038021541e-02   3.3078866210702371e-02   5.2322982760351376e-02   9.3485331131596905e-02   1.5172541895641681e-01   1.3824647012073843e-01   1.0519531538893825e-01   9.3430556095025596e-02   4.4756145728948649e-02  -3.8005694069920964e-02  -1.2226005233301313e-01  -1.7868248981307872e-01  -1.9271650211312055e-01  -1.6311956023681853e-01  -9.6169482223919300e-02  -2.1691737209426733e-21   0.0000000000000000e+00  -9.4872996543488505e-02  -2.1277464569697457e-03   6.6496989155190353e-02   1.0894052553546323e-01   1.2367003703681748e-01   1.1018622835200731e-01   1.0504440087154546e-01   1.1656357655989770e-01   8.5003631466340143e-02   3.1856343675820561e-02  -1.8880438887406148e-02  -3.8743653680383350e-02  -4.3531551503399123e-02  -1.1766400022438722e-01  -1.5765113590643484e-01  -1.2216901887479424e-01  -5.4683284708993404e-02   5.6443664840409663e-02   8.2408536864381668e-02   1.4034089437221339e-01   2.2801462409995971e-01   2.0788389830196591e-01   1.5447980508602999e-01   1.3254546430364209e-01   6.2957851190322878e-02  -5.5537467123027748e-02  -1.7832658977988225e-01  -2.6209674597692106e-01  -2.8410336080012971e-01  -2.4146845135859421e-01  -1.4289887796595649e-01   8.3853344950756482e-24   0.0000000000000000e+00  -1.2866874830580524e-01   4.2224874354285773e-03   1.0043927182191617e-01   1.5788168052038576e-01   1.7528234254732167e-01   1.5220946934335028e-01   1.4327644278880947e-01   1.6285116839711575e-01   1.1790795905820163e-01   4.2036489851630658e-02  -2.9235691663533837e-02  -5.3081759481326027e-02  -5.0982397620835423e-02  -1.5856063912378240e-01  -2.1900411922656213e-01  -1.7178050783084886e-01  -8.0031528452201184e-02   7.6979037732294878e-02   1.1166230750178054e-01   1.8583251386311767e-01   3.0090199216297814e-01   2.7446779290501433e-01   1.9988038667323668e-01   1.6560014060301734e-01   7.6374798530423255e-02  -7.3005459003769979e-02  -2.2904794778100446e-01  -3.3690990009918959e-01  -3.6635126319384426e-01  -3.1240828910612162e-01  -1.8544851596118647e-01  -2.3812721401516293e-22   0.0000000000000000e+00  -1.6085719224691244e-01   8.5568257139205343e-03   1.3085920538415038e-01   2.0307438667927505e-01   2.2380215083167176e-01   1.9277042515256909e-01   1.8079587060388258e-01   2.0778631611207321e-01   1.5053540254679731e-01   5.3100296091380832e-02  -3.7815935236270283e-02  -6.5473225033595706e-02  -5.5978638917327808e-02  -1.9707571981179037e-01  -2.7897701826906374e-01  -2.2133451641213445e-01  -1.0644210606170684e-01   9.4572805831833265e-02   1.3868210078277771e-01   2.2864581204864579e-01   3.6936733707690034e-01   3.3653013708550750e-01   2.4048760555502019e-01   1.9308873070056443e-01   8.5635864521141428e-02  -9.0510718245904051e-02  -2.7487245623560541e-01  -4.0322116931263696e-01  -4.3893096206901006e-01  -3.7501328753861929e-01  -2.2303547477839428e-01  -9.8070078188390394e-23   0.0000000000000000e+00  -1.9010088133223005e-01   1.1843625739589390e-02   1.5784263103623591e-01   2.4382472510916903e-01   2.6813185097216941e-01   2.3077324152129139e-01   2.1668333317237928e-01   2.5030623605573371e-01   1.8164533073319272e-01   6.4247025259071416e-02  -4.4753602723521115e-02  -7.5714557104769487e-02  -5.8500541236004053e-02  -2.3284763982282625e-01  -3.3657778734662475e-01  -2.6963299976141791e-01  -1.3306626900123084e-01   1.0934217589682110e-01   1.6283672332336666e-01   2.6789995263978428e-01   4.3259437799036565e-01   3.9335058630379161e-01   2.7616825167534548e-01   2.1564801902028197e-01   9.1571775139557915e-02  -1.0771563367074560e-01  -3.1603394137772978e-01  -4.6147170416059968e-01  -5.0213418965249157e-01  -4.2931689340076429e-01  -2.5556381016467311e-01   1.8100970996258893e-22   0.0000000000000000e+00  -2.1577825262641998e-01   1.4629305392786807e-02   1.8154887437412789e-01   2.7987458478621552e-01   3.0772939298678803e-01   2.6554287318501557e-01   2.5024131380867604e-01   2.8965674989371459e-01   2.1050397609420574e-01   7.4982932335581967e-02  -5.0208755759806704e-02  -8.3829241983206515e-02  -5.8721839498804301e-02  -2.6555678144055644e-01  -3.9102029591470910e-01  -3.1587214015949527e-01  -1.5933062215189409e-01   1.2143822333524448e-01   1.8387122719915713e-01   3.0309095397052549e-01   4.9001593408915256e-01   4.4457593642382320e-01   3.0708876313277439e-01   2.3392120574765660e-01   9.4972232094435491e-02  -1.2413168002581686e-01  -3.5253014440930147e-01  -5.1201186418662448e-01  -5.5640750728165755e-01  -4.7566842969272566e-01  -2.8321291165256435e-01  -8.5566185055520117e-22   0.0000000000000000e+00  -2.3763908722490057e-01   1.7188868837089102e-02   2.0210380982021733e-01   3.1114485979132461e-01   3.4233379852193424e-01   2.9665741681802643e-01   2.8095250361285734e-01   3.2526979505431486e-01   2.3661549527370018e-01   8.4974772453215636e-02  -5.4342810416729725e-02  -8.9942998503231661e-02  -5.6930814006122273e-02  -2.9496776927263607e-01  -4.4165833532028143e-01  -3.5942814585932198e-01  -1.8478464757069632e-01   1.3102235559030218e-01   2.0172445794502775e-01   3.3396440393768440e-01   5.4126189868935681e-01   4.9002833701150073e-01   3.3348797575502559e-01   2.4846410068198058e-01   9.6493782593451705e-02  -1.3928398040494841e-01  -3.8423872949571680e-01  -5.5504838721405358e-01  -6.0213307440960295e-01  -5.1444921785087649e-01  -3.0622607208488356e-01   2.8085042220996776e-22   0.0000000000000000e+00  -2.5562475274395491e-01   1.9639148262459750e-02   2.1959190169486964e-01   3.3763547292555834e-01   3.7183441398855527e-01   3.2385183612726243e-01   3.0843725792548454e-01   3.5673435883648252e-01   2.5963550228395160e-01   9.3983860371395250e-02  -5.7314733281166444e-02  -9.4222759555559116e-02  -5.3446434043005191e-02  -3.2091056202726742e-01  -4.8794941291844834e-01  -3.9977352185629622e-01  -2.0903537230836891e-01   1.3826102695053255e-01   2.1643737900891974e-01   3.6041473688032177e-01   5.8609085739380140e-01   5.2960983822099783e-01   3.5558600487292619e-01   2.5970954967628379e-01   9.6634889134586746e-02  -1.5278461587015965e-01  -4.1101083912439840e-01  -5.9068907370579204e-01  -6.3959113573210646e-01  -5.4597865617852037e-01  -3.2482559535531519e-01  -8.4653429646696205e-23   0.0000000000000000e+00  -2.6977553227326945e-01   2.2010587905845508e-02   2.3406988480938262e-01   3.5938535666156690e-01   3.9620523844173078e-01   3.4696170556591499e-01   3.3241810354462337e-01   3.8376935039074850e-01   2.7933350894276548e-01   1.0183990228809443e-01  -5.9272326917217240e-02  -9.6843214073266362e-02  -4.8573338120813284e-02  -3.4325564644798556e-01  -5.2942993525286941e-01  -4.3644413755024808e-01  -2.3172307610301049e-01   1.4332111893956603e-01   2.2810276481563604e-01   3.8241979016952160e-01   6.2433924170976440e-01   5.6325510161235959e-01   3.7355463404293443e-01   2.6796969023262873e-01   9.5746173125045561e-02  -1.6435319649251492e-01  -4.3272415251258028e-01  -6.1899599138687622e-01  -6.6898342393606458e-01  -5.7050433196247463e-01  -3.3919187488695701e-01   1.6470588727507335e-23   0.0000000000000000e+00  -2.8018368165420277e-01   2.4289174464620155e-02   2.4558058413327272e-01   3.7645607772007261e-01   4.1547114615349567e-01   3.6589040066121670e-01   3.5269416193694864e-01   4.0619562069566678e-01   2.9556789608335582e-01   1.0842817657946516e-01  -6.0343741933288661e-02  -9.7968337890945972e-02  -4.2583373020116611e-02  -3.6189789127470784e-01  -5.6569980029186440e-01  -4.6902713672438001e-01  -2.5251551479909656e-01   1.4636548992720289e-01   2.3683668085075466e-01   4.0000193212109264e-01   6.5589098852692784e-01   5.9091051558346119e-01   3.8751487826096359e-01   2.7345563779040699e-01   9.4055884883218144e-02  -1.7381150535311221e-01  -4.4930686161785860e-01  -6.4002560275736564e-01  -6.9046907304148220e-01  -5.8822210463348579e-01  -3.4946930134687509e-01   2.0171159200183470e-24   0.0000000000000000e+00  -2.8697050495198062e-01   2.6439724114632114e-02   2.5416296978471042e-01   3.8892563275764608e-01   4.2969094816765102e-01   3.8059035617605402e-01   3.6912424457847964e-01   4.2391220394454660e-01   3.0826608637069447e-01   1.1368002735866871e-01  -6.0633265735947905e-02  -9.7742952009830214e-02  -3.5711473259796199e-02  -3.7674949152081455e-01  -5.9641456921789993e-01  -4.9715772836753352e-01  -2.7110920708521380e-01   1.4754981984682172e-01   2.4276294379988531e-01   4.1320706480728042e-01   6.8066288070115089e-01   6.1252857321722554e-01   3.9754630988178891e-01   2.7630242331652483e-01   9.1698847509853867e-02  -1.8106810460230405e-01  -4.6074530932818936e-01  -6.5385497468902998e-01  -7.0419673423926377e-01  -5.9930237346396598e-01  -3.5578054567885192e-01   6.8490653213716878e-24   0.0000000000000000e+00  -2.9027611475188431e-01   2.8418319351942851e-02   2.5985907355019466e-01   3.9688721198145399e-01   4.3894988227642007e-01   3.9105285314153937e-01   3.8161625597479898e-01   4.3687882956327612e-01   3.1740912719466458e-01   1.1756423716703192e-01  -6.0221764062175803e-02  -9.6291197394888978e-02  -2.8158619974850949e-02  -3.8773915797892827e-01  -6.2128286740764105e-01  -5.2051964378354088e-01  -2.8723242415266692e-01   1.4702140510440390e-01   2.4600597366348384e-01   4.2209532620904106e-01   6.9860044373645325e-01   6.2807100416596451e-01   4.0370093675939744e-01   2.7659331609301968e-01   8.8743130522099464e-02  -1.8610116124778128e-01  -4.6708398001516760e-01  -6.6059799923576290e-01  -7.1032933000015541e-01  -6.0391378900871351e-01  -3.5824135994696837e-01  -1.5932481249560105e-21   0.0000000000000000e+00  -2.9025594380236697e-01   3.0178696903684597e-02   2.6271898132933758e-01   4.0045067595808875e-01   4.4335755496753521e-01   3.9730299151241483e-01   3.9012081711681140e-01   4.4510441377214688e-01   3.2302054000660402e-01   1.2007925654585312e-01  -5.9170424101135148e-02  -9.3719362735489795e-02  -2.0097899192743043e-02  -3.9481480855442369e-01  -6.4006689744291945e-01  -5.3884686472080556e-01  -3.0064770770662796e-01   1.4491992995833625e-01   2.4668921516965250e-01   4.2673928332438010e-01   7.0968041322464748e-01   6.3751659587801801e-01   4.0601815111784528e-01   2.7438123638792189e-01   8.5212372861924374e-02  -1.8894311694433541e-01  -4.6842274987306770e-01  -6.6041546558117425e-01  -7.0906219453923947e-01  -6.0224225545099774e-01  -3.5697323024036687e-01   1.1429915375976637e-22   0.0000000000000000e+00  -2.8708085393902394e-01   3.1675373584636062e-02   2.6280478322095335e-01   3.9974557806990602e-01   4.4304902981179339e-01   3.9939779763774907e-01   3.9462761055713724e-01   4.4864032340325827e-01   3.2515892765064103e-01   1.2124664442930660e-01  -5.7526199145829952e-02  -9.0121025624903747e-02  -1.1681534285850826e-02  -3.9794784371209746e-01  -6.5258452090939134e-01  -5.5192555233314100e-01  -3.1115331002980223e-01   1.4137979839984582e-01   2.4493710762122697e-01   4.2722665830024648e-01   7.1391688042253187e-01   6.4087111928604179e-01   4.0453909579300523e-01   2.6970674372697440e-01   8.1103584232073866e-02  -1.8966830479040842e-01  -4.6491377110411775e-01  -6.5352166778480292e-01  -7.0063632838282541e-01  -5.9450554190177762e-01  -3.5211344893294505e-01   3.3578013692915506e-24   0.0000000000000000e+00  -2.8093911008644168e-01   3.2865079410621563e-02   2.6019397704756991e-01   3.9492501552726605e-01   4.3818764281820938e-01   3.9742618022571014e-01   3.9516344333082687e-01   4.4757706593187374e-01   3.2391356303191471e-01   1.2110587714909192e-01  -5.5327730689990876e-02  -8.5583080163809083e-02  -3.0478337679919320e-03  -3.9713786754129032e-01  -6.5871194828535573e-01  -5.5959578757202555e-01  -3.1858367102839336e-01   1.3653339097189152e-01   2.4087902851062140e-01   4.2366543888716557e-01   7.1136905614066304e-01   6.3817772738424372e-01   3.9931974649287333e-01   2.6261290305477197e-01   7.6401112344359048e-02  -1.8838338112290667e-01  -4.5675889040962037e-01  -6.4018915585913916e-01  -6.8534833856763677e-01  -5.8096449455277355e-01  -3.4382297242672633e-01   8.5860250539723627e-24   0.0000000000000000e+00  -2.7203921359796118e-01   3.3707373727075586e-02   2.5498255812529530e-01   3.8616981474934514e-01   4.2896862686785436e-01   3.9150989751294846e-01   3.9179135250966579e-01   4.4204321703858873e-01   3.1940211615892483e-01   1.1971043611172920e-01  -5.2611016383683470e-02  -8.0191790617406611e-02   5.6723796135309205e-03  -3.9241728327859327e-01  -6.5838653572260875e-01  -5.6175309662777129e-01  -3.2280933961760927e-01   1.3051456322850069e-01   2.3465395835793199e-01   4.1618978560208414e-01   7.0214919320508629e-01   6.2952681032572722e-01   3.9044251482407261e-01   2.5315766869162987e-01   7.1087777257763177e-02  -1.8521990823619067e-01  -4.4420772322479246e-01  -6.2075247724239235e-01  -6.6355820781631636e-01  -5.6193182573317668e-01  -3.3229260369279284e-01   3.3578013692915506e-24   0.0000000000000000e+00  -2.6061295835893966e-01   3.4164940886954355e-02   2.4728787558300316e-01   3.7369268028289626e-01   4.1562291554233816e-01   3.8180495598051922e-01   3.8461027206316345e-01   4.3220561351757075e-01   3.1176972682998466e-01   1.1712492126985878e-01  -4.9414485459476951e-02  -7.4038432663862411e-02   1.4349944991436022e-02  -3.8385554992298959e-01  -6.5160949773101107e-01  -5.5834991940605683e-01  -3.2373682495565248e-01   1.2346176199911242e-01   2.2641488050237618e-01   4.0496554648834981e-01   6.8642961311037842e-01   6.1506466010261374e-01   3.7802642838728590e-01   2.4142453349194457e-01   6.5154236154776349e-02  -1.8032824144074303e-01  -4.2755612872369841e-01  -5.9561127693837124e-01  -6.3569562571440485e-01  -5.3777922385012422e-01  -3.1774796829948992e-01   1.1429915375976637e-22   0.0000000000000000e+00  -2.4691825180325527e-01   3.4203863701322543e-02   2.3725124961519975e-01   3.5774199813350444e-01   3.9842065001992244e-01   3.6850299779000539e-01   3.7375488200807916e-01   4.1827001710514428e-01   3.0118871617086901e-01   1.1342286607808344e-01  -4.5783380046060002e-02  -6.7224333358257879e-02   2.2852072937045671e-02  -3.7156307504843017e-01  -6.3844851834993011e-01  -5.4939724630818476e-01  -3.2130882671391686e-01   1.1552025848690263e-01   2.1633215500147870e-01   3.9019446046820844e-01   6.6444801721276525e-01   5.9500046968937703e-01   3.6223602821321715e-01   2.2753218335817157e-01   5.8607598939573839e-02  -1.7387185201542754e-01  -4.0714467034783491e-01  -5.6523283592764717e-01  -6.0226528092056197e-01  -5.0894324790087542e-01  -3.0045359390998194e-01  -1.5932481249560105e-21   0.0000000000000000e+00  -2.3124130854801236e-01   3.3794079911190190e-02   2.2504029090025976e-01   3.3860499716627146e-01   3.7767397106508638e-01   3.5183228744431089e-01   3.5939529854176455e-01   4.0048155813665703e-01   2.8785830236741078e-01   1.0868492259374773e-01  -4.1773433202489392e-02  -5.9865217214389789e-02   3.1037487163584537e-02  -3.5569478315749370e-01  -6.1904030041015201e-01  -5.3496661706787529e-01  -3.1550516986059052e-01   1.0684317572108577e-01   2.0459530453815220e-01   3.7211629602251128e-01   6.3651034741623713e-01   5.6961119275325556e-01   3.4328907764432465e-01   2.1164381856291470e-01   5.1480222091826372e-02  -1.6602127468886141e-01  -3.8335660119258796e-01  -5.3015394501129909e-01  -5.6385122608002158e-01  -4.7593016800868637e-01  -2.8071619858779345e-01   6.8490653213716878e-24   0.0000000000000000e+00  -2.1389780514466700e-01   3.2910203218890863e-02   2.1085082579358200e-01   3.1660994375634088e-01   3.5373866344097560e-01   3.3205789369665001e-01   3.4173624407946840e-01   3.7912428450542024e-01   2.7200371766262427e-01   1.0299711257861917e-01  -3.7453818952888560e-02  -5.2094751896382969e-02   3.8751939805167099e-02  -3.3645338667370839e-01  -5.9359304681973568e-01  -5.1519252431008822e-01  -3.0634452539577778e-01   9.7591254988251025e-02   1.9141285255312934e-01   3.5100826413264208e-01   6.0299042223872501e-01   5.3924363981866763e-01   3.2146301214423584e-01   1.9397665152957200e-01   4.3839456923597218e-02  -1.5694699764043279e-01  -3.5661494311466196e-01  -4.9098186812372929e-01  -5.2112011951978054e-01  -4.3931954621394609e-01  -2.5888702681583792e-01  -2.3131129777320641e-23   0.0000000000000000e+00  -1.9523247708073790e-01   3.1532926571218173e-02   1.9490830387239236e-01   2.9212698059997544e-01   3.2701414223968345e-01   3.0948057984494232e-01   3.2101524735610693e-01   3.5451906545574485e-01   2.5387410079248590e-01   9.6448875973224060e-02  -3.2909268928858440e-02  -4.4067121768048723e-02   4.5824085251314269e-02  -3.1409235992269557e-01  -5.6238871845378002e-01  -4.9027491709707915e-01  -2.9388653189720887e-01   8.7931732623641845e-02   1.7701009671996779e-01   3.2718109918289690e-01   5.6432545187555538e-01   5.0431290885631019e-01   2.9709977130030324e-01   1.7481181893002773e-01   3.5798844592668348e-02  -1.4681087545369856e-01  -3.2737833626535445e-01  -4.4839398302435673e-01  -4.7482272507831258e-01  -3.9976583534966342e-01  -2.3536269660660414e-01  -8.2651267908793852e-23   0.0000000000000000e+00  -1.7561641234415165e-01   2.9651327346066736e-02   1.7746854294900935e-01   2.6556711410159500e-01   2.9794112253182881e-01   2.8443374751517803e-01   2.9749923617388646e-01   3.2701892554649437e-01   2.3373845186406342e-01   8.9130671612926260e-02  -2.8241145993744766e-02  -3.5958416260965659e-02   5.2061629928768630e-02  -2.8891867473853294e-01  -5.2578462707371243e-01  -4.6048077369819823e-01  -2.7823303956801904e-01   7.8037375158864997e-02   1.6162498393495112e-01   3.0097124313096602e-01   5.2100640015365596e-01   4.6529589074002248e-01   2.7060821685124803e-01   1.5450443076854617e-01   2.7530662087248477e-02  -1.3575617565746373e-01  -2.9613554543893067e-01  -4.0313541233459721e-01  -4.2579238350593385e-01  -3.5799649932283317e-01  -2.1058347826292839e-01  -1.7217505000043671e-25   0.0000000000000000e+00  -1.5544088898786740e-01   2.7266564355526768e-02   1.5881761573269185e-01  