<VTKFile type="UnstructuredGrid" version="0.1" byte_order="LittleEndian">
<UnstructuredGrid>
<Piece NumberOfPoints="1089" NumberOfCells="2048">
<Points>
<DataArray type="Float64" NumberOfComponents="3" Format="ascii">  0.0000000000000000e+00  0.0000000000000000e+00  0.0000000000000000e+00   3.1250000000000000e-02  0.0000000000000000e+00  0.0000000000000000e+00   6.2500000000000000e-02  0.0000000000000000e+00  0.0000000000000000e+00   9.3750000000000000e-02  0.0000000000000000e+00  0.0000000000000000e+00   1.2500000000000000e-01  0.0000000000000000e+00  0.0000000000000000e+00   1.5625000000000000e-01  0.0000000000000000e+00  0.0000000000000000e+00   1.8750000000000000e-01  0.0000000000000000e+00  0.0000000000000000e+00   2.1875000000000000e-01  0.0000000000000000e+00  0.0000000000000000e+00   2.5000000000000000e-01  0.0000000000000000e+00  0.0000000000000000e+00   2.8125000000000000e-01  0.0000000000000000e+00  0.0000000000000000e+00   3.1250000000000000e-01  0.0000000000000000e+00  0.0000000000000000e+00   3.4375000000000000e-01  0.0000000000000000e+00  0.0000000000000000e+00   3.7500000000000000e-01  0.0000000000000000e+00  0.0000000000000000e+00   4.0625000000000000e-01  0.0000000000000000e+00  0.0000000000000000e+00   4.3750000000000000e-01  0.0000000000000000e+00  0.0000000000000000e+00   4.6875000000000000e-01  0.0000000000000000e+00  0.0000000000000000e+00   5.0000000000000000e-01  0.0000000000000000e+00  0.0000000000000000e+00   5.3125000000000000e-01  0.0000000000000000e+00  0.0000000000000000e+00   5.6250000000000000e-01  0.0000000000000000e+00  0.0000000000000000e+00   5.9375000000000000e-01  0.0000000000000000e+00  0.0000000000000000e+00   6.2500000000000000e-01  0.0000000000000000e+00  0.0000000000000000e+00   6.5625000000000000e-01  0.0000000000000000e+00  0.0000000000000000e+00   6.8750000000000000e-01  0.0000000000000000e+00  0.0000000000000000e+00   7.1875000000000000e-01  0.0000000000000000e+00  0.0000000000000000e+00   7.5000000000000000e-01  0.0000000000000000e+00  0.0000000000000000e+00   7.8125000000000000e-01  0.0000000000000000e+00  0.0000000000000000e+00   8.1250000000000000e-01  0.0000000000000000e+00  0.0000000000000000e+00   8.4375000000000000e-01  0.0000000000000000e+00  0.0000000000000000e+00   8.7500000000000000e-01  0.0000000000000000e+00  0.0000000000000000e+00   9.0625000000000000e-01  0.0000000000000000e+00  0.0000000000000000e+00   9.3750000000000000e-01  0.0000000000000000e+00  0.0000000000000000e+00   9.6875000000000000e-01  0.0000000000000000e+00  0.0000000000000000e+00   1.0000000000000000e+00  0.0000000000000000e+00  0.0000000000000000e+00   0.0000000000000000e+00  3.1250000000000000e-02  0.0000000000000000e+00   3.1250000000000000e-02  3.1250000000000000e-02  0.0000000000000000e+00   6.2500000000000000e-02  3.1250000000000000e-02  0.0000000000000000e+00   9.3750000000000000e-02  3.1250000000000000e-02  0.0000000000000000e+00   1.2500000000000000e-01  3.1250000000000000e-02  0.0000000000000000e+00   1.5625000000000000e-01  3.1250000000000000e-02  0.0000000000000000e+00   1.8750000000000000e-01  3.1250000000000000e-02  0.0000000000000000e+00   2.1875000000000000e-01  3.1250000000000000e-02  0.0000000000000000e+00   2.5000000000000000e-01  3.1250000000000000e-02  0.0000000000000000e+00   2.8125000000000000e-01  3.1250000000000000e-02  0.0000000000000000e+00   3.1250000000000000e-01  3.1250000000000000e-02  0.0000000000000000e+00   3.4375000000000000e-01  3.1250000000000000e-02  0.0000000000000000e+00   3.7500000000000000e-01  3.1250000000000000e-02  0.0000000000000000e+00   4.0625000000000000e-01  3.1250000000000000e-02  0.0000000000000000e+00   4.3750000000000000e-01  3.1250000000000000e-02  0.0000000000000000e+00   4.6875000000000000e-01  3.1250000000000000e-02  0.0000000000000000e+00   5.0000000000000000e-01  3.1250000000000000e-02  0.0000000000000000e+00   5.3125000000000000e-01  3.1250000000000000e-02  0.0000000000000000e+00   5.6250000000000000e-01  3.1250000000000000e-02  0.0000000000000000e+00   5.9375000000000000e-01  3.1250000000000000e-02  0.0000000000000000e+00   6.2500000000000000e-01  3.1250000000000000e-02  0.0000000000000000e+00   6.5625000000000000e-01  3.1250000000000000e-02  0.0000000000000000e+00   6.8750000000000000e-01  3.1250000000000000e-02  0.0000000000000000e+00   7.1875000000000000e-01  3.1250000000000000e-02  0.0000000000000000e+00   7.5000000000000000e-01  3.1250000000000000e-02  0.0000000000000000e+00   7.8125000000000000e-01  3.1250000000000000e-02  0.0000000000000000e+00   8.1250000000000000e-01  3.1250000000000000e-02  0.0000000000000000e+00   8.4375000000000000e-01  3.1250000000000000e-02  0.0000000000000000e+00   8.7500000000000000e-01  3.1250000000000000e-02  0.0000000000000000e+00   9.0625000000000000e-01  3.1250000000000000e-02  0.0000000000000000e+00   9.3750000000000000e-01  3.1250000000000000e-02  0.0000000000000000e+00   9.6875000000000000e-01  3.1250000000000000e-02  0.0000000000000000e+00   1.0000000000000000e+00  3.1250000000000000e-02  0.0000000000000000e+00   0.0000000000000000e+00  6.2500000000000000e-02  0.0000000000000000e+00   3.1250000000000000e-02  6.2500000000000000e-02  0.0000000000000000e+00   6.2500000000000000e-02  6.2500000000000000e-02  0.0000000000000000e+00   9.3750000000000000e-02  6.2500000000000000e-02  0.0000000000000000e+00   1.2500000000000000e-01  6.2500000000000000e-02  0.0000000000000000e+00   1.5625000000000000e-01  6.2500000000000000e-02  0.0000000000000000e+00   1.8750000000000000e-01  6.2500000000000000e-02  0.0000000000000000e+00   2.1875000000000000e-01  6.2500000000000000e-02  0.0000000000000000e+00   2.5000000000000000e-01  6.2500000000000000e-02  0.0000000000000000e+00   2.8125000000000000e-01  6.2500000000000000e-02  0.0000000000000000e+00   3.1250000000000000e-01  6.2500000000000000e-02  0.0000000000000000e+00   3.4375000000000000e-01  6.2500000000000000e-02  0.0000000000000000e+00   3.7500000000000000e-01  6.2500000000000000e-02  0.0000000000000000e+00   4.0625000000000000e-01  6.2500000000000000e-02  0.0000000000000000e+00   4.3750000000000000e-01  6.2500000000000000e-02  0.0000000000000000e+00   4.6875000000000000e-01  6.2500000000000000e-02  0.0000000000000000e+00   5.0000000000000000e-01  6.2500000000000000e-02  0.0000000000000000e+00   5.3125000000000000e-01  6.2500000000000000e-02  0.0000000000000000e+00   5.6250000000000000e-01  6.2500000000000000e-02  0.0000000000000000e+00   5.9375000000000000e-01  6.2500000000000000e-02  0.0000000000000000e+00   6.2500000000000000e-01  6.2500000000000000e-02  0.0000000000000000e+00   6.5625000000000000e-01  6.2500000000000000e-02  0.0000000000000000e+00   6.8750000000000000e-01  6.2500000000000000e-02  0.0000000000000000e+00   7.1875000000000000e-01  6.2500000000000000e-02  0.0000000000000000e+00   7.5000000000000000e-01  6.2500000000000000e-02  0.0000000000000000e+00   7.8125000000000000e-01  6.2500000000000000e-02  0.0000000000000000e+00   8.1250000000000000e-01  6.2500000000000000e-02  0.0000000000000000e+00   8.4375000000000000e-01  6.2500000000000000e-02  0.0000000000000000e+00   8.7500000000000000e-01  6.2500000000000000e-02  0.0000000000000000e+00   9.0625000000000000e-01  6.2500000000000000e-02  0.0000000000000000e+00   9.3750000000000000e-01  6.2500000000000000e-02  0.0000000000000000e+00   9.6875000000000000e-01  6.2500000000000000e-02  0.0000000000000000e+00   1.0000000000000000e+00  6.2500000000000000e-02  0.0000000000000000e+00   0.0000000000000000e+00  9.3750000000000000e-02  0.0000000000000000e+00   3.1250000000000000e-02  9.3750000000000000e-02  0.0000000000000000e+00   6.2500000000000000e-02  9.3750000000000000e-02  0.0000000000000000e+00   9.3750000000000000e-02  9.3750000000000000e-02  0.0000000000000000e+00   1.2500000000000000e-01  9.3750000000000000e-02  0.0000000000000000e+00   1.5625000000000000e-01  9.3750000000000000e-02  0.0000000000000000e+00   1.8750000000000000e-01  9.3750000000000000e-02  0.0000000000000000e+00   2.1875000000000000e-01  9.3750000000000000e-02  0.0000000000000000e+00   2.5000000000000000e-01  9.3750000000000000e-02  0.0000000000000000e+00   2.8125000000000000e-01  9.3750000000000000e-02  0.0000000000000000e+00   3.1250000000000000e-01  9.3750000000000000e-02  0.0000000000000000e+00   3.4375000000000000e-01  9.3750000000000000e-02  0.0000000000000000e+00   3.7500000000000000e-01  9.3750000000000000e-02  0.0000000000000000e+00   4.0625000000000000e-01  9.3750000000000000e-02  0.0000000000000000e+00   4.3750000000000000e-01  9.3750000000000000e-02  0.0000000000000000e+00   4.6875000000000000e-01  9.3750000000000000e-02  0.0000000000000000e+00   5.0000000000000000e-01  9.3750000000000000e-02  0.0000000000000000e+00   5.3125000000000000e-01  9.3750000000000000e-02  0.0000000000000000e+00   5.6250000000000000e-01  9.3750000000000000e-02  0.0000000000000000e+00   5.9375000000000000e-01  9.3750000000000000e-02  0.0000000000000000e+00   6.2500000000000000e-01  9.3750000000000000e-02  0.0000000000000000e+00   6.5625000000000000e-01  9.3750000000000000e-02  0.0000000000000000e+00   6.8750000000000000e-01  9.3750000000000000e-02  0.0000000000000000e+00   7.1875000000000000e-01  9.3750000000000000e-02  0.0000000000000000e+00   7.5000000000000000e-01  9.3750000000000000e-02  0.0000000000000000e+00   7.8125000000000000e-01  9.3750000000000000e-02  0.0000000000000000e+00   8.1250000000000000e-01  9.3750000000000000e-02  0.0000000000000000e+00   8.4375000000000000e-01  9.3750000000000000e-02  0.0000000000000000e+00   8.7500000000000000e-01  9.3750000000000000e-02  0.0000000000000000e+00   9.0625000000000000e-01  9.3750000000000000e-02  0.0000000000000000e+00   9.3750000000000000e-01  9.3750000000000000e-02  0.0000000000000000e+00   9.6875000000000000e-01  9.3750000000000000e-02  0.0000000000000000e+00   1.0000000000000000e+00  9.3750000000000000e-02  0.0000000000000000e+00   0.0000000000000000e+00  1.2500000000000000e-01  0.0000000000000000e+00   3.1250000000000000e-02  1.2500000000000000e-01  0.0000000000000000e+00  
[...]
<PointData Scalars="scalars">
<DataArray type="Float64" Name="Solution Component 0" Format="ascii">  0.0000000000000000e+00   0.0000000000000000e+00   0.0000000000000000e+00   0.0000000000000000e+00   0.0000000000000000e+00   0.0000000000000000e+00   0.0000000000000000e+00   0.0000000000000000e+00   0.0000000000000000e+00   0.0000000000000000e+00   0.0000000000000000e+00   0.0000000000000000e+00   0.0000000000000000e+00   0.0000000000000000e+00   0.0000000000000000e+00   0.0000000000000000e+00   0.0000000000000000e+00   0.0000000000000000e+00   0.0000000000000000e+00   0.0000000000000000e+00   0.0000000000000000e+00   0.0000000000000000e+00   0.0000000000000000e+00   0.0000000000000000e+00   0.0000000000000000e+00   0.0000000000000000e+00   0.0000000000000000e+00   0.0000000000000000e+00   0.0000000000000000e+00   0.0000000000000000e+00   0.0000000000000000e+00   0.0000000000000000e+00   0.0000000000000000e+00   0.0000000000000000e+00  -4.2177064726134960e-03   7.5438517882621566e-04   9.7351309597703013e-03   1.6348314545300224e-02   1.9569413834316769e-02   2.1051943830023352e-02   2.5145437774300693e-02   1.6406046315279112e-02  -4.1322614529324831e-03  -1.7936418605781521e-02  -2.4004411651726551e-02  -1.3591650339573096e-02  -3.1040505078415985e-02  -4.1576811728742197e-02  -7.7086321836991401e-03   5.3001446945061441e-03   4.5656668596034122e-03   3.8092386614719594e-02   6.9225859433401302e-02   7.8271501446459196e-02   6.4895125672882137e-02   3.7569626552145872e-02   5.9539582501413569e-03  -2.2610629438470257e-02  -4.3924865211723077e-02  -5.6463073350639902e-02  -6.0491997678521009e-02  -5.7223226065880393e-02  -4.8174020056742616e-02  -3.4779204523174782e-02  -1.8275835624527288e-02   3.0159431676665285e-17   0.0000000000000000e+00  -6.6031461727759939e-03   1.7246500324357938e-02   3.7729980276260379e-02   4.7397274152739734e-02   4.2962708865420043e-02   4.2028428365315819e-02   7.6994099067015209e-02   5.2664646732587882e-02  -5.8084671560775332e-03  -4.1145681562608782e-02  -7.0125183278067535e-02  -2.7936574756764466e-02  -6.2269091400076700e-02  -8.9912537633158457e-02  -1.5969645889871844e-02   1.5094572302664306e-02   1.0805185269255991e-02   7.2960440959045164e-02   1.3595304805906872e-01   1.5728835493768867e-01   1.3312610025704005e-01   7.9391699080136754e-02   1.5689300967430479e-02  -4.2640825691041703e-02  -8.6638455954278715e-02  -1.1291611298897369e-01  -1.2187115257210948e-01  -1.1591935252778984e-01  -9.8143116052863605e-02  -7.1435845723988867e-02  -3.8116061841023514e-02   5.2246919858657280e-16   0.0000000000000000e+00  -1.7898502786964626e-02   2.9158628691219747e-02   6.5037614312362740e-02   8.0189726685911872e-02   6.6087368279748912e-02   5.7021545907318096e-02   1.3247995360194537e-01   9.5285391312901258e-02  -3.3327592917969055e-03  -6.1972626552146262e-02  -1.2103431304065758e-01  -4.5665803018717727e-02  -9.3897927509363488e-02  -1.3698800198436131e-01  -2.4602658305383249e-02   2.7077007389949038e-02   2.2363891549831618e-02   1.0750238456955960e-01   1.9688939637515168e-01   2.2897675456702665e-01   1.9555344228009752e-01   1.1812860638429287e-01   2.4942208237437209e-02  -6.1237907674638714e-02  -1.2678048717176985e-01  -1.6630849617901589e-01  -1.8016953179959541e-01  -1.7182752599511653e-01  -1.4582029672435753e-01  -1.0643044404461983e-01  -5.7023363379098087e-02  -4.4203652827534763e-19   0.0000000000000000e+00  -3.0069274128284740e-02   3.9282656154574484e-02   9.0876956702045000e-02   1.1170073734730393e-01   8.8205064245856155e-02   7.0772126300314028e-02   1.8986896196995831e-01   1.4057760129861235e-01   1.1787572150025892e-03  -8.2320375464077361e-02  -1.7239358068944380e-01  -6.5468532575574792e-02  -1.2553561661539836e-01  -1.8168116520234237e-01  -3.1933772650162236e-02   4.1859102818628216e-02   3.7684052531243795e-02   1.4108463903308097e-01   2.5134399644081545e-01   2.9160117962761395e-01   2.4966445925609673e-01   1.5133416086656426e-01   3.2044090507000654e-02  -7.8976500129579713e-02  -1.6386886660583036e-01  -2.1534887116016099e-01  -2.3361133148052241e-01  -2.2300524480398901e-01  -1.8937273679177052e-01  -1.3828326775358171e-01  -7.4124353822855871e-02  -6.3806165850360362e-17   0.0000000000000000e+00  -4.1367091807658275e-02   4.8453170726439614e-02   1.1484185914212346e-01   1.4101839611593456e-01   1.0888928315201014e-01   8.3611863385980797e-02   2.4767577992822151e-01   1.8675828852262680e-01   6.6084865750161235e-03  -1.0208146321503456e-01  -2.2245047525856973e-01  -8.6054651466536222e-02  -1.5644656185533312e-01  -2.2361794234646704e-01  -3.7452004336801389e-02   5.8825186675616328e-02   5.4904763719323992e-02   1.7268401114559037e-01   2.9932104373925139e-01   3.4541219525760691e-01   2.9545048398340445e-01   1.7873481536404603e-01   3.6695070792023145e-02  -9.5952023242760975e-02  -1.9768324183830785e-01  -2.5951341774548542e-01  -2.8146359677833854e-01  -2.6864114116579885e-01  -2.2804601939203376e-01  -1.6642072371487074e-01  -8.9124898756502646e-02   1.5442310820376060e-17   0.0000000000000000e+00  -5.1402427728673303e-02   5.6825437668595886e-02   1.3665190208584194e-01   1.6766994902913865e-01   1.2778463540851157e-01   9.5249102877393174e-02   3.0464811506171025e-01   2.3261628171340670e-01   1.2468904400867122e-02  -1.2091611898356791e-01  -2.7020636855062197e-01  -1.0649359745288998e-01  -1.8599351505812323e-01  -2.6259561049836416e-01  -4.1391941333536790e-02   7.6871028002539241e-02   7.2564700692133874e-02   2.0155005931384004e-01   3.4104466188871752e-01   3.9116100374353491e-01   3.3368112412835077e-01   2.0087164124419224e-01   3.9204269652928489e-02  -1.1198099415930388e-01  -2.2805840896854879e-01  -2.9859585945955996e-01  -3.2347232790346253e-01  -3.0846374553070333e-01  -2.6159839359969950e-01  -1.9067671874484496e-01  -1.0195884133385913e-01  -5.5597195095989118e-17   0.0000000000000000e+00  -6.0057314224136189e-02   6.4378294676926143e-02   1.5609288866808960e-01   1.9134104606525548e-01   1.4463331383314629e-01   1.0546274290298614e-01   3.5970837146642343e-01   2.7720663087466058e-01   1.8525681620411311e-02  -1.3852079339303633e-01  -3.1500064001636224e-01  -1.2616864336356873e-01  -2.1373103715056857e-01  -2.9850404312022455e-01  -4.4201511965555086e-02   9.4974816718548752e-02   8.9667865186629489e-02   2.2724748056812635e-01   3.7680127035563121e-01   4.2961027763988707e-01   3.6523197967837401e-01   2.1847907506960820e-01   4.0074354365811041e-02  -1.2676920106382444e-01  -2.5484090986183111e-01  -3.3251942876537149e-01  -3.5959710123223265e-01  -3.4245291139751144e-01  -2.9002917568379932e-01  -2.1107183877944610e-01  -1.1265743443680352e-01  -3.8510125178304333e-16   0.0000000000000000e+00  -6.7283999540126482e-02   7.1064752184593016e-02   1.7301859937867478e-01   2.1183672534115988e-01   1.5927384560921815e-01   1.1414316976238954e-01   4.1193583998064659e-01   3.1975318979193468e-01   2.4632152091236419e-02  -1.5466182012351540e-01  -3.5636217093119643e-01  -1.4468424613800637e-01  -2.3935710490976755e-01  -3.3125101217600161e-01  -4.6276974567958498e-02   1.1237878219538365e-01   1.0560416008264875e-01   2.4957437647770409e-01   4.0687306121964395e-01   4.6139129532624923e-01   3.9085321146537327e-01   2.3223074064268301e-01   3.9799929206659673e-02  -1.4001842150711247e-01  -2.7789661333430338e-01  -3.6126585669253969e-01  -3.8989163526875253e-01  -3.7070179304150880e-01  -3.1344776070785457e-01  -2.2771116387004328e-01  -1.2129457070919827e-01  -9.0109245153390378e-17   0.0000000000000000e+00  -7.3077574871289311e-02   7.6846461156946419e-02   1.8734819301715158e-01   2.2906186532652367e-01   1.7161979984982612e-01   1.2124703567545946e-01   4.6055282870598696e-01   3.5960651708282260e-01   3.0670338826619157e-02  -1.6916675667787931e-01  -3.9393167537778329e-01  -1.6178136648591632e-01  -2.6264743706310228e-01  -3.6071484706019247e-01  -4.7882562818090404e-02   1.2858466934789323e-01   1.2003853706184389e-01   2.6847469837188276e-01   4.3150820524345568e-01   4.8698185807194144e-01   4.1111569542193976e-01   2.4265763048500438e-01   3.8785944267803706e-02  -1.5148098639640467e-01  -2.9712550106848878e-01  -3.8485194912183185e-01  -4.1445282717178755e-01  -3.9335265462340979e-01  -3.3201061710913871e-01  -2.4073522364629038e-01  -1.2796123896516351e-01   5.2350784400805252e-17   0.0000000000000000e+00  -7.7469393912833986e-02   8.1697154037462485e-02   1.9905397074603193e-01   2.4299643350966962e-01   1.8163735772370265e-01   1.2676518802841902e-01   5.0490789302281991e-01   3.9622001679679614e-01   3.6534275142722394e-02  -1.8190801892051078e-01  -4.2741653410933145e-01  -1.7727694527348042e-01  -2.8341209137700246e-01  -3.8673335077937226e-01  -4.9155989137432139e-02   1.4329093309997676e-01   1.3281129209368184e-01   2.8397136798906969e-01   4.5091070293287022e-01   5.0672528543607165e-01   4.2642455056771894e-01   2.5014208582822495e-01   3.7327974582350779e-02  -1.6097967658252355e-01  -3.1247070224144591e-01  -4.0332328062808359e-01  -4.3340074833148567e-01  -4.1056868215820030e-01  -3.4589202246410866e-01  -2.5029660002640469e-01  -1.3275317635132880e-01  -4.3894576469281288e-18   0.0000000000000000e+00  -8.0518087985906067e-02   8.5600282341583428e-02   2.0814663454842994e-01   2.5367150499290975e-01   1.8932815288328342e-01   1.3070742002037952e-01   5.4445870263742202e-01   4.2913376529843522e-01   4.2127616108827128e-02  -1.9278839620716531e-01  -4.5656650094824602e-01  -1.9102781763384261e-01  -3.0147613823050390e-01  -4.0911531787586269e-01  -5.0142275555058645e-02   1.5632666185349509e-01   1.4386356271443884e-01   2.9612293732799522e-01   4.6524231438249219e-01   5.2086158381170078e-01   4.3705454267808785e-01   2.5494140553162187e-01   3.5621129773419122e-02  -1.6840809128671061e-01  -3.2392076113279156e-01  -4.1675308893272212e-01  -4.4687228847191540e-01  -4.2252342047539448e-01  -3.5527210071105042e-01  -2.5654990146976475e-01  -1.3576545623258937e-01   3.2184941640161011e-18   0.0000000000000000e+00  -8.2299535748960997e-02   8.8546887947472910e-02   2.1466298955133123e-01   2.6115088311732648e-01   1.9471783858810490e-01   1.3309619424980898e-01   5.7875708507817869e-01   4.5796271533334298e-01   4.7364613814319452e-02  -2.0173135574302348e-01  -4.8116327799431707e-01  -2.0291279382581809e-01  -3.1667585757069905e-01  -4.2766018783110815e-01  -5.0829430856459648e-02   1.6760030714078433e-01   1.5318837906260852e-01   3.0499985066087992e-01   4.7463187409375862e-01   5.2956000931173430e-01   4.4318896050898521e-01   2.5721976595469404e-01   3.3779716152987728e-02  -1.7372195823453654e-01  -3.3150757974740303e-01  -4.2524248372826745e-01  -4.5502081784401666e-01  -4.2939893853536731e-01  -3.6033397272711892e-01  -2.5964908306916945e-01  -1.3709105802967614e-01  -1.8429745142670647e-18   0.0000000000000000e+00  -8.2898687413537703e-02   9.0534521847882438e-02   2.1865770836728804e-01   2.6551936049597413e-01   1.9784921916020143e-01   1.3396417471362651e-01   6.0743731034917492e-01   4.8238801407456494e-01   5.2170826527996886e-02  -2.0867607702098082e-01  -5.0101852330162322e-01  -2.1282592432513253e-01  -3.2886230896675017e-01  -4.4217716988183592e-01  -5.1176492953768193e-02   1.7706565446518668e-01   1.6080224949818256e-01   3.1067480293387317e-01   4.7918855243123937e-01   5.3294897108103523e-01   4.4495495992096840e-01   2.5707918606285940e-01   3.1858686246462202e-02  -1.7692768860364569e-01  -3.3530262745877032e-01  -4.2892111547251455e-01  -4.5801861601724742e-01  -4.3138836300792882e-01  -3.6126573783637189e-01  -2.5974884092456307e-01  -1.3682174560675234e-01   3.2836148293298850e-16   0.0000000000000000e+00  -8.2404345786976613e-02   9.1566936903525714e-02   2.2019891650402049e-01   2.6687664702901553e-01   1.9877866346934203e-01   1.3335325567702846e-01   6.3020761584107277e-01   5.0215072963635299e-01   5.6482834368092143e-02  -2.1357597584083610e-01  -5.1597628781260541e-01  -2.2067562686963485e-01  -3.3790711717805172e-01  -4.5250029581332379e-01  -5.1132405902127899e-02   1.8470194254564842e-01   1.6673120724715820e-01   3.1322212174815239e-01   4.7901656068463461e-01   5.3114190153641050e-01   4.4245322380767194e-01   2.5458606505062992e-01   2.9872881698109772e-02  -1.7807147933678549e-01  -3.3541318387550911e-01  -4.2794832869857846e-01  -4.5606067323575883e-01  -4.2870057154185576e-01  -3.5826492956012596e-01  -2.5700816458669157e-01  -1.3505020225183390e-01  -2.3131533403784807e-17   0.0000000000000000e+00  -8.0906723419778157e-02   9.1654226143061748e-02   2.1936669301841663e-01   2.6533541223326729e-01   1.9757475313855144e-01   1.3131423549838242e-01   6.4684444080017112e-01   5.1704743253842145e-01   6.0247205206274475e-02  -2.1639931840906421e-01  -5.2591725430196279e-01  -2.2638634457630258e-01  -3.4370795322131298e-01  -4.5849886613046947e-01  -5.0647308696400918e-02   1.9050384611402851e-01   1.7100601670567722e-01   3.1272222982891434e-01   4.7422964744151164e-01   5.2425891042475370e-01   4.3578186579897804e-01   2.4979255873152176e-01   2.7812740081303189e-02  -1.7723034731738221e-01  -3.3197950397626036e-01  -4.2251490423118765e-01  -4.4936920292828825e-01  -4.2156586173745775e-01  -3.5154408969688927e-01  -2.5159487973227374e-01  -1.3187274267011051e-01  -5.9146931457058890e-19   0.0000000000000000e+00  -7.8497082014033562e-02   9.0813194773489106e-02   2.1625352132366946e-01   2.6102198933306675e-01   1.9431837613413616e-01   1.2790685488743780e-01   6.5718866437537526e-01   5.2692714026934218e-01   6.3419133581760767e-02  -2.1713081185594132e-01  -5.3076326025341103e-01  -2.2990094825049950e-01  -3.4619285514688858e-01  -4.6008411276162675e-01  -4.9678624697196271e-02   1.9447746119805409e-01   1.7366251264627031e-01   3.0926843863997749e-01   4.6496446127665597e-01   5.1244462211143693e-01   4.2505537325902804e-01   2.4275329586014868e-01   2.5656481725583883e-02  -1.7450537102612051e-01  -3.2517315082256903e-01  -4.1284535815772594e-01  -4.3819847041902682e-01  -4.1024190719987175e-01  -3.4133664911297867e-01  -2.4369045786663010e-01  -1.2739216724628358e-01  -7.3300206216517550e-18   0.0000000000000000e+00  -7.5268691917034239e-02   8.9067849623712725e-02   2.1096588886573428e-01   2.5407860362551316e-01   1.8910368699242622e-01   1.2320009616828800e-01   6.6114315637868992e-01   5.3168919118300695e-01   6.5961090244340520e-02  -2.1577343150051023e-01  -5.3048134939368274e-01  -2.3118306796956267e-01  -3.4532338082853103e-01  -4.5721330994861731e-01  -4.8194220040101633e-02   1.9663926145327712e-01   1.7474421828822267e-01   3.0297429639460072e-01   4.5139239773985362e-01   4.9588287750278076e-01   4.1041969527748540e-01   2.3353841948606366e-01   2.3379396348538199e-02  -1.7001684949119544e-01  -3.1519635635685550e-01  -3.9920062602937001e-01  -4.2283963025416671e-01  -3.9501955256595256e-01  -3.2790260237889113e-01  -2.3349463541737947e-01  -1.2172048206621854e-01  -5.9146931457058890e-19   0.0000000000000000e+00  -7.1318455316286944e-02   8.6449943951586547e-02   2.0362643243946010e-01   2.4466630085856853e-01   1.8203951164817495e-01   1.1727267955764817e-01   6.5867104939596932e-01   5.3128168605341852e-01   6.7841697716383847e-02  -2.1235004291504975e-01  -5.2508704393260219e-01  -2.3021904549922337e-01  -3.4109690693978562e-01  -4.4989252646828343e-01  -4.6174508586647317e-02   1.9701573759522023e-01   1.7430523860356928e-01   2.9398037182300979e-01   4.3372988339950158e-01   4.7480907800770039e-01   3.9206461580659713e-01   2.2224403976901899e-01   2.0961040721595908e-02  -1.6390086207638960e-01  -3.0228208623804631e-01  -3.8188087146647126e-01  -4.0362528427702898e-01  -3.7622810668956813e-01  -3.1153361540495089e-01  -2.2122953084362978e-01  -1.1498130067965298e-01  -2.3131533403784807e-17   0.0000000000000000e+00  -6.6748668296245650e-02   8.2999540373847047e-02   1.9437618112052357e-01   2.3296798165126539e-01   1.7325088153163709e-01   1.1021369673616037e-01   6.4979426307774879e-01   5.2570021589048921e-01   6.9034965918476771e-02  -2.0690455288169213e-01  -5.1464673353022106e-01  -2.2701937786410523e-01  -3.3354840282337733e-01  -4.3817899725145698e-01  -4.3614994739034831e-02   1.9564193113785930e-01   1.7241191554047486e-01   2.8245970085178440e-01   4.1224718460841298e-01   4.4952090768337583e-01   3.7023443169489717e-01   2.0900108004386936e-01   1.8391119162189731e-02  -1.5630668858448823e-01  -2.8669443001351158e-01  -3.6122811138571670e-01  -3.8093345895938346e-01  -3.5423981932365911e-01  -2.9255726037875307e-01  -2.0714301068045635e-01  -1.0731178680536135e-01   3.2836148293298850e-16   0.0000000000000000e+00  -6.1668491150243837e-02   7.8765561722782859e-02   1.8337653943558482e-01   2.1919107796074155e-01   1.6288044345147484e-01   1.0212332092791090e-01   6.3459192033946543e-01   5.1498666456597986e-01   6.9519985436126239e-02  -1.9950239199053513e-01  -4.9927910877984122e-01  -2.2161947430010207e-01  -3.2275183100299254e-01  -4.2218379987013249e-01  -4.0530429642334442e-02   1.9255732430778147e-01   1.6914190360694448e-01   2.6862120005308288e-01   3.8727578824727765e-01   4.2038801262637188e-01   3.4523772415235798e-01   1.9398326226444532e-01   1.5674640308911782e-02  -1.4739464222687826e-01  -2.6872895403580455e-01  -3.3762831920974495e-01  -3.5519065600474736e-01  -3.2947319236423800e-01  -2.7134005805181771e-01  -1.9151105829244838e-01  -9.8864005976425307e-02  -1.8429745142670647e-18   0.0000000000000000e+00  -5.6194738792297805e-02   7.3806297362686485e-02   1.7081068607311350e-01   2.0356945070781304e-01   1.5108951784252730e-01   9.3113528919404109e-02   6.1319836486325519e-01   4.9922789905550569e-01   6.9281144359304492e-02  -1.9023013670538352e-01  -4.7915548247569523e-01  -2.1407933016655037e-01  -3.0882099236845290e-01  -4.0207513760253205e-01  -3.6961455824436627e-02   1.8779762615270476e-01   1.6457925799805539e-01   2.5271022124883458e-01   3.5921421672920251e-01   3.8786094727305781e-01   3.1745666905519615e-01   1.7741462783849735e-01   1.2836666310676370e-02  -1.3733402545474691e-01  -2.4871269224647682e-01  -3.1151261934955421e-01  -3.2687354137201202e-01  -3.0239468539526154e-01  -2.4828893726435167e-01  -1.7463885884659303e-01  -8.9805540499829445e-02   2.4384141822185381e-18   0.0000000000000000e+00  -5.0451607118288971e-02   6.8189830948280128e-02   1.5688406600982899e-01   1.8636408038078708e-01   1.3805858875460431e-01   8.3308762084017177e-02   5.8580049007594515e-01   4.7855406900204733e-01   6.8308820945337467e-02  -1.7919408790929547e-01  -4.5449868120431525e-01  -2.0448135986449925e-01  -2.9190913546874331e-01  -3.7808197192421256e-01  -3.2984186621324796e-02   1.8138104404370659e-01   1.5880394473973478e-01   2.3500517161024639e-01   3.2853184422025833e-01   3.5247929810083561e-01   2.8735583877973903e-01   1.5957650598280504e-01   9.9266107847055859e-03  -1.2630109567151415e-01  -2.2700345518777398e-01  -2.8335707416157441e-01  -2.9650867322014457e-01  -2.7351821112389807e-01  -2.2385059151851516e-01  -1.5686023322632500e-01  -8.0319190465078377e-02   1.4477389210951865e-17   0.0000000000000000e+00  -4.4568949546156207e-02   6.1994373675041577e-02   1.4182368053147851e-01   1.6786213277214571e-01   1.2398705048424204e-01   7.2846450748192348e-02   5.5263397302510087e-01   4.5313588788065534e-01   6.6600141351452175e-02  -1.6651773673584552e-01  -4.2557997052964042e-01  -1.9292514987699380e-01  -2.7220599066082896e-01  -3.5049689936440159e-01  -2.8722376913912873e-02   1.7328789610402051e-01   1.5187408136574676e-01   2.1580887949134669e-01   2.9576990610722426e-01   3.1487830905361974e-01   2.5548972532599667e-01   1.4081318467197448e-01   7.0216222608670007e-03  -1.1447705701569232e-01  -2.0398802653736200e-01  -2.5368030948626957e-01  -2.6466936387737722e-01  -2.4340152914682098e-01  -1.9850798464409020e-01  -1.3853490570403085e-01  -7.0601519743552443e-02  -1.9362839460113746e-19   0.0000000000000000e+00  -3.8678759547714610e-02   5.5308561720516479e-02   1.2587602081619839e-01  