<VTKFile type="UnstructuredGrid" version="0.1" byte_order="LittleEndian">
<UnstructuredGrid>
<Piece NumberOfPoints="1089" NumberOfCells="2048">
<Points>
<DataArray type="Float64" NumberOfComponents="3" Format="ascii">  0.0000000000000000e+00  0.0000000000000000e+00  0.0000000000000000e+00   3.1250000000000000e-02  0.0000000000000000e+00  0.0000000000000000e+00   6.2500000000000000e-02  0.0000000000000000e+00  0.0000000000000000e+00   9.3750000000000000e-02  0.0000000000000000e+00  0.0000000000000000e+00   1.2500000000000000e-01  0.0000000000000000e+00  0.0000000000000000e+00   1.5625000000000000e-01  0.0000000000000000e+00  0.0000000000000000e+00   1.8750000000000000e-01  0.0000000000000000e+00  0.0000000000000000e+00   2.1875000000000000e-01  0.0000000000000000e+00  0.0000000000000000e+00   2.5000000000000000e-01  0.0000000000000000e+00  0.0000000000000000e+00   2.8125000000000000e-01  0.0000000000000000e+00  0.0000000000000000e+00   3.1250000000000000e-01  0.0000000000000000e+00  0.0000000000000000e+00   3.4375000000000000e-01  0.0000000000000000e+00  0.0000000000000000e+00   3.7500000000000000e-01  0.0000000000000000e+00  0.0000000000000000e+00   4.0625000000000000e-01  0.0000000000000000e+00  0.0000000000000000e+00   4.3750000000000000e-01  0.0000000000000000e+00  0.0000000000000000e+00   4.6875000000000000e-01  0.0000000000000000e+00  0.0000000000000000e+00   5.0000000000000000e-01  0.0000000000000000e+00  0.0000000000000000e+00   5.3125000000000000e-01  0.0000000000000000e+00  0.0000000000000000e+00   5.6250000000000000e-01  0.0000000000000000e+00  0.0000000000000000e+00   5.9375000000000000e-01  0.0000000000000000e+00  0.0000000000000000e+00   6.2500000000000000e-01  0.0000000000000000e+00  0.0000000000000000e+00   6.5625000000000000e-01  0.0000000000000000e+00  0.0000000000000000e+00   6.8750000000000000e-01  0.0000000000000000e+00  0.0000000000000000e+00   7.1875000000000000e-01  0.0000000000000000e+00  0.0000000000000000e+00   7.5000000000000000e-01  0.0000000000000000e+00  0.0000000000000000e+00   7.8125000000000000e-01  0.0000000000000000e+00  0.0000000000000000e+00   8.1250000000000000e-01  0.0000000000000000e+00  0.0000000000000000e+00   8.4375000000000000e-01  0.0000000000000000e+00  0.0000000000000000e+00   8.7500000000000000e-01  0.0000000000000000e+00  0.0000000000000000e+00   9.0625000000000000e-01  0.0000000000000000e+00  0.0000000000000000e+00   9.3750000000000000e-01  0.0000000000000000e+00  0.0000000000000000e+00   9.6875000000000000e-01  0.0000000000000000e+00  0.0000000000000000e+00   1.0000000000000000e+00  0.0000000000000000e+00  0.0000000000000000e+00   0.0000000000000000e+00  3.1250000000000000e-02  0.0000000000000000e+00   3.1250000000000000e-02  3.1250000000000000e-02  0.0000000000000000e+00   6.2500000000000000e-02  3.1250000000000000e-02  0.0000000000000000e+00   9.3750000000000000e-02  3.1250000000000000e-02  0.0000000000000000e+00   1.2500000000000000e-01  3.1250000000000000e-02  0.0000000000000000e+00   1.5625000000000000e-01  3.1250000000000000e-02  0.0000000000000000e+00   1.8750000000000000e-01  3.1250000000000000e-02  0.0000000000000000e+00   2.1875000000000000e-01  3.1250000000000000e-02  0.0000000000000000e+00   2.5000000000000000e-01  3.1250000000000000e-02  0.0000000000000000e+00   2.8125000000000000e-01  3.1250000000000000e-02  0.0000000000000000e+00   3.1250000000000000e-01  3.1250000000000000e-02  0.0000000000000000e+00   3.4375000000000000e-01  3.1250000000000000e-02  0.0000000000000000e+00   3.7500000000000000e-01  3.1250000000000000e-02  0.0000000000000000e+00   4.0625000000000000e-01  3.1250000000000000e-02  0.0000000000000000e+00   4.3750000000000000e-01  3.1250000000000000e-02  0.0000000000000000e+00   4.6875000000000000e-01  3.1250000000000000e-02  0.0000000000000000e+00   5.0000000000000000e-01  3.1250000000000000e-02  0.0000000000000000e+00   5.3125000000000000e-01  3.1250000000000000e-02  0.0000000000000000e+00   5.6250000000000000e-01  3.1250000000000000e-02  0.0000000000000000e+00   5.9375000000000000e-01  3.1250000000000000e-02  0.0000000000000000e+00   6.2500000000000000e-01  3.1250000000000000e-02  0.0000000000000000e+00   6.5625000000000000e-01  3.1250000000000000e-02  0.0000000000000000e+00   6.8750000000000000e-01  3.1250000000000000e-02  0.0000000000000000e+00   7.1875000000000000e-01  3.1250000000000000e-02  0.0000000000000000e+00   7.5000000000000000e-01  3.1250000000000000e-02  0.0000000000000000e+00   7.8125000000000000e-01  3.1250000000000000e-02  0.0000000000000000e+00   8.1250000000000000e-01  3.1250000000000000e-02  0.0000000000000000e+00   8.4375000000000000e-01  3.1250000000000000e-02  0.0000000000000000e+00   8.7500000000000000e-01  3.1250000000000000e-02  0.0000000000000000e+00   9.0625000000000000e-01  3.1250000000000000e-02  0.0000000000000000e+00   9.3750000000000000e-01  3.1250000000000000e-02  0.0000000000000000e+00   9.6875000000000000e-01  3.1250000000000000e-02  0.0000000000000000e+00   1.0000000000000000e+00  3.1250000000000000e-02  0.0000000000000000e+00   0.0000000000000000e+00  6.2500000000000000e-02  0.0000000000000000e+00   3.1250000000000000e-02  6.2500000000000000e-02  0.0000000000000000e+00   6.2500000000000000e-02  6.2500000000000000e-02  0.0000000000000000e+00   9.3750000000000000e-02  6.2500000000000000e-02  0.0000000000000000e+00   1.2500000000000000e-01  6.2500000000000000e-02  0.0000000000000000e+00   1.5625000000000000e-01  6.2500000000000000e-02  0.0000000000000000e+00   1.8750000000000000e-01  6.2500000000000000e-02  0.0000000000000000e+00   2.1875000000000000e-01  6.2500000000000000e-02  0.0000000000000000e+00   2.5000000000000000e-01  6.2500000000000000e-02  0.0000000000000000e+00   2.8125000000000000e-01  6.2500000000000000e-02  0.0000000000000000e+00   3.1250000000000000e-01  6.2500000000000000e-02  0.0000000000000000e+00   3.4375000000000000e-01  6.2500000000000000e-02  0.0000000000000000e+00   3.7500000000000000e-01  6.2500000000000000e-02  0.0000000000000000e+00   4.0625000000000000e-01  6.2500000000000000e-02  0.0000000000000000e+00   4.3750000000000000e-01  6.2500000000000000e-02  0.0000000000000000e+00   4.6875000000000000e-01  6.2500000000000000e-02  0.0000000000000000e+00   5.0000000000000000e-01  6.2500000000000000e-02  0.0000000000000000e+00   5.3125000000000000e-01  6.2500000000000000e-02  0.0000000000000000e+00   5.6250000000000000e-01  6.2500000000000000e-02  0.0000000000000000e+00   5.9375000000000000e-01  6.2500000000000000e-02  0.0000000000000000e+00   6.2500000000000000e-01  6.2500000000000000e-02  0.0000000000000000e+00   6.5625000000000000e-01  6.2500000000000000e-02  0.0000000000000000e+00   6.8750000000000000e-01  6.2500000000000000e-02  0.0000000000000000e+00   7.1875000000000000e-01  6.2500000000000000e-02  0.0000000000000000e+00   7.5000000000000000e-01  6.2500000000000000e-02  0.0000000000000000e+00   7.8125000000000000e-01  6.2500000000000000e-02  0.0000000000000000e+00   8.1250000000000000e-01  6.2500000000000000e-02  0.0000000000000000e+00   8.4375000000000000e-01  6.2500000000000000e-02  0.0000000000000000e+00   8.7500000000000000e-01  6.2500000000000000e-02  0.0000000000000000e+00   9.0625000000000000e-01  6.2500000000000000e-02  0.0000000000000000e+00   9.3750000000000000e-01  6.2500000000000000e-02  0.0000000000000000e+00   9.6875000000000000e-01  6.2500000000000000e-02  0.0000000000000000e+00   1.0000000000000000e+00  6.2500000000000000e-02  0.0000000000000000e+00   0.0000000000000000e+00  9.3750000000000000e-02  0.0000000000000000e+00   3.1250000000000000e-02  9.3750000000000000e-02  0.0000000000000000e+00   6.2500000000000000e-02  9.3750000000000000e-02  0.0000000000000000e+00   9.3750000000000000e-02  9.3750000000000000e-02  0.0000000000000000e+00   1.2500000000000000e-01  9.3750000000000000e-02  0.0000000000000000e+00   1.5625000000000000e-01  9.3750000000000000e-02  0.0000000000000000e+00   1.8750000000000000e-01  9.3750000000000000e-02  0.0000000000000000e+00   2.1875000000000000e-01  9.3750000000000000e-02  0.0000000000000000e+00   2.5000000000000000e-01  9.3750000000000000e-02  0.0000000000000000e+00   2.8125000000000000e-01  9.3750000000000000e-02  0.0000000000000000e+00   3.1250000000000000e-01  9.3750000000000000e-02  0.0000000000000000e+00   3.4375000000000000e-01  9.3750000000000000e-02  0.0000000000000000e+00   3.7500000000000000e-01  9.3750000000000000e-02  0.0000000000000000e+00   4.0625000000000000e-01  9.3750000000000000e-02  0.0000000000000000e+00   4.3750000000000000e-01  9.3750000000000000e-02  0.0000000000000000e+00   4.6875000000000000e-01  9.3750000000000000e-02  0.0000000000000000e+00   5.0000000000000000e-01  9.3750000000000000e-02  0.0000000000000000e+00   5.3125000000000000e-01  9.3750000000000000e-02  0.0000000000000000e+00   5.6250000000000000e-01  9.3750000000000000e-02  0.0000000000000000e+00   5.9375000000000000e-01  9.3750000000000000e-02  0.0000000000000000e+00   6.2500000000000000e-01  9.3750000000000000e-02  0.0000000000000000e+00   6.5625000000000000e-01  9.3750000000000000e-02  0.0000000000000000e+00   6.8750000000000000e-01  9.3750000000000000e-02  0.0000000000000000e+00   7.1875000000000000e-01  9.3750000000000000e-02  0.0000000000000000e+00   7.5000000000000000e-01  9.3750000000000000e-02  0.0000000000000000e+00   7.8125000000000000e-01  9.3750000000000000e-02  0.0000000000000000e+00   8.1250000000000000e-01  9.3750000000000000e-02  0.0000000000000000e+00   8.4375000000000000e-01  9.3750000000000000e-02  0.0000000000000000e+00   8.7500000000000000e-01  9.3750000000000000e-02  0.0000000000000000e+00   9.0625000000000000e-01  9.3750000000000000e-02  0.0000000000000000e+00   9.3750000000000000e-01  9.3750000000000000e-02  0.0000000000000000e+00   9.6875000000000000e-01  9.3750000000000000e-02  0.0000000000000000e+00   1.0000000000000000e+00  9.3750000000000000e-02  0.0000000000000000e+00   0.0000000000000000e+00  1.2500000000000000e-01  0.0000000000000000e+00   3.1250000000000000e-02  1.2500000000000000e-01  0.0000000000000000e+00  
[...]
<PointData Scalars="scalars">
<DataArray type="Float64" Name="Solution Component 0" Format="ascii">  0.0000000000000000e+00   0.0000000000000000e+00   0.0000000000000000e+00   0.0000000000000000e+00   0.0000000000000000e+00   0.0000000000000000e+00   0.0000000000000000e+00   0.0000000000000000e+00   0.0000000000000000e+00   0.0000000000000000e+00   0.0000000000000000e+00   0.0000000000000000e+00   0.0000000000000000e+00   0.0000000000000000e+00   0.0000000000000000e+00   0.0000000000000000e+00   0.0000000000000000e+00   0.0000000000000000e+00   0.0000000000000000e+00   0.0000000000000000e+00   0.0000000000000000e+00   0.0000000000000000e+00   0.0000000000000000e+00   0.0000000000000000e+00   0.0000000000000000e+00   0.0000000000000000e+00   0.0000000000000000e+00   0.0000000000000000e+00   0.0000000000000000e+00   0.0000000000000000e+00   0.0000000000000000e+00   0.0000000000000000e+00   0.0000000000000000e+00   0.0000000000000000e+00   4.3621327400770599e-03   8.6822557572828595e-03   1.2918763905342238e-02   1.7030857294878465e-02   2.0978934218651383e-02   2.4724972537646689e-02   2.8232895855059611e-02   3.1468920951717501e-02   3.4401883136948294e-02   3.7003536381587994e-02   3.9248825342682390e-02   4.1116126660136344e-02   4.2587457201492047e-02   4.3648647249325129e-02   4.4289476963369497e-02   4.4503774803165738e-02   4.4289476963369497e-02   4.3648647249325129e-02   4.2587457201492047e-02   4.1116126660136344e-02   3.9248825342682390e-02   3.7003536381588008e-02   3.4401883136948308e-02   3.1468920951717508e-02   2.8232895855059611e-02   2.4724972537646689e-02   2.0978934218651393e-02   1.7030857294878465e-02   1.2918763905342238e-02   8.6822557572828734e-03   4.3621327400770703e-03   5.4501405362671547e-18   0.0000000000000000e+00   8.6822557572828595e-03   1.7280896645419298e-02   2.5713113052161316e-02   3.3897698123993625e-02   4.1755829832525147e-02   4.9211830073710987e-02   5.6193893489364190e-02   6.2634778992007895e-02   6.8472457333305481e-02   7.3650708479630678e-02   7.8119663041724324e-02   8.1836282544174424e-02   8.4764773909461480e-02   8.6876934164861530e-02   8.8152422052490853e-02   8.8578953926738993e-02   8.8152422052490867e-02   8.6876934164861530e-02   8.4764773909461480e-02   8.1836282544174424e-02   7.8119663041724338e-02   7.3650708479630705e-02   6.8472457333305509e-02   6.2634778992007908e-02   5.6193893489364190e-02   4.9211830073710987e-02   4.1755829832525161e-02   3.3897698123993625e-02   2.5713113052161316e-02   1.7280896645419326e-02   8.6822557572828803e-03   1.0847793239820178e-17   0.0000000000000000e+00   1.2918763905342238e-02   2.5713113052161316e-02   3.8259830864070671e-02   5.0438085589808009e-02   6.2130593979053232e-02   7.3224750784242634e-02   8.3613713210659288e-02   9.3197429870952170e-02   1.0188360433469026e-01   1.0958858399344180e-01   1.1623816568112270e-01   1.2176831029104945e-01   1.2612575950754393e-01   1.2926854871262719e-01   1.3116641112823102e-01   1.3180106930181598e-01   1.3116641112823102e-01   1.2926854871262719e-01   1.2612575950754393e-01   1.2176831029104945e-01   1.1623816568112270e-01   1.0958858399344186e-01   1.0188360433469031e-01   9.3197429870952184e-02   8.3613713210659288e-02   7.3224750784242634e-02   6.2130593979053246e-02   5.0438085589808015e-02   3.8259830864070671e-02   2.5713113052161358e-02   1.2918763905342270e-02   1.6140975764466743e-17   0.0000000000000000e+00   1.7030857294878465e-02   3.3897698123993625e-02   5.0438085589808009e-02   6.6492726719130299e-02   8.1907006541525509e-02   9.6532477116001519e-02   1.1022828716583066e-01   1.2286253855334167e-01   1.3431355653108853e-01   1.4447106153618233e-01   1.5323723124276697e-01   1.6052764264449224e-01   1.6627208509421523e-01   1.7041523647091342e-01   1.7291719596195235e-01   1.7375386832972309e-01   1.7291719596195235e-01   1.7041523647091342e-01   1.6627208509421523e-01   1.6052764264449224e-01   1.5323723124276700e-01   1.4447106153618239e-01   1.3431355653108856e-01   1.2286253855334169e-01   1.1022828716583066e-01   9.6532477116001519e-02   8.1907006541525537e-02   6.6492726719130313e-02   5.0438085589808009e-02   3.3897698123993680e-02   1.7030857294878503e-02   2.1278711868946603e-17   0.0000000000000000e+00   2.0978934218651383e-02   4.1755829832525147e-02   6.2130593979053232e-02   8.1907006541525509e-02   1.0089460985607859e-01   1.1891054292311351e-01   1.3578130245868392e-01   1.5134441382596697e-01   1.6544999575483371e-01   1.7796220378041364e-01   1.8876053849955182e-01   1.9774100604593270e-01   2.0481711960786175e-01   2.0992073234354033e-01   2.1300269367240546e-01   2.1403332262208868e-01   2.1300269367240546e-01   2.0992073234354033e-01   2.0481711960786175e-01   1.9774100604593270e-01   1.8876053849955182e-01   1.7796220378041372e-01   1.6544999575483377e-01   1.5134441382596700e-01   1.3578130245868392e-01   1.1891054292311351e-01   1.0089460985607862e-01   8.1907006541525523e-02   6.2130593979053232e-02   4.1755829832525217e-02   2.0978934218651435e-02   2.6211522346001371e-17   0.0000000000000000e+00   2.4724972537646689e-02   4.9211830073710987e-02   7.3224750784242634e-02   9.6532477116001519e-02   1.1891054292311351e-01   1.4014343519876096e-01   1.6002666958324985e-01   1.7836875966017593e-01   1.9499306107529207e-01   2.0973947271820317e-01   2.2246597858357936e-01   2.3305001546292128e-01   2.4138965329525786e-01   2.4740457680935371e-01   2.5103685900367667e-01   2.5225151901508786e-01   2.5103685900367667e-01   2.4740457680935371e-01   2.4138965329525786e-01   2.3305001546292128e-01   2.2246597858357939e-01   2.0973947271820326e-01   1.9499306107529216e-01   1.7836875966017596e-01   1.6002666958324985e-01   1.4014343519876096e-01   1.1891054292311354e-01   9.6532477116001533e-02   7.3224750784242634e-02   4.9211830073711070e-02   2.4724972537646748e-02   3.0891901534188501e-17   0.0000000000000000e+00   2.8232895855059611e-02   5.6193893489364190e-02   8.3613713210659288e-02   1.1022828716583066e-01   1.3578130245868392e-01   1.6002666958324985e-01   1.8273089240025300e-01   2.0367531683257495e-01   2.2265823662354542e-01   2.3949683587845783e-01   2.5402894968157269e-01   2.6611462583290457e-01   2.7563747266441341e-01   2.8250577995539417e-01   2.8665340215203611e-01   2.8804039538526466e-01   2.8665340215203616e-01   2.8250577995539417e-01   2.7563747266441341e-01   2.6611462583290457e-01   2.5402894968157269e-01   2.3949683587845791e-01   2.2265823662354550e-01   2.0367531683257500e-01   1.8273089240025300e-01   1.6002666958324985e-01   1.3578130245868394e-01   1.1022828716583068e-01   8.3613713210659288e-02   5.6193893489364280e-02   2.8232895855059677e-02   3.5274774823370242e-17   0.0000000000000000e+00   3.1468920951717501e-02   6.2634778992007895e-02   9.3197429870952170e-02   1.2286253855334167e-01   1.5134441382596697e-01   1.7836875966017593e-01   2.0367531683257495e-01   2.2702036936362247e-01   2.4817909163574070e-01   2.6694771358691488e-01   2.8314548312778298e-01   2.9661640688306473e-01   3.0723075249304088e-01   3.1488629800709572e-01   3.1950931633698210e-01   3.2105528528898442e-01   3.1950931633698215e-01   3.1488629800709572e-01   3.0723075249304088e-01   2.9661640688306473e-01   2.8314548312778298e-01   2.6694771358691499e-01   2.4817909163574076e-01   2.2702036936362252e-01   2.0367531683257495e-01   1.7836875966017593e-01   1.5134441382596703e-01   1.2286253855334169e-01   9.3197429870952170e-02   6.2634778992008006e-02   3.1468920951717577e-02   3.9317932747849508e-17   0.0000000000000000e+00   3.4401883136948294e-02   6.8472457333305481e-02   1.0188360433469026e-01   1.3431355653108853e-01   1.6544999575483371e-01   1.9499306107529207e-01   2.2265823662354542e-01   2.4817909163574070e-01   2.7130984632699195e-01   2.9182773888506580e-01   3.0953517078840698e-01   3.2426160978791929e-01   3.3586523222574716e-01   3.4423428887462887e-01   3.4928818114404403e-01   3.5097823728869965e-01   3.4928818114404403e-01   3.4423428887462887e-01   3.3586523222574716e-01   3.2426160978791929e-01   3.0953517078840698e-01   2.9182773888506591e-01   2.7130984632699207e-01   2.4817909163574070e-01   2.2265823662354542e-01   1.9499306107529207e-01   1.6544999575483377e-01   1.3431355653108853e-01   1.0188360433469026e-01   6.8472457333305592e-02   3.4401883136948377e-02   4.2982437486598624e-17   0.0000000000000000e+00   3.7003536381587994e-02   7.3650708479630678e-02   1.0958858399344180e-01   1.4447106153618233e-01   1.7796220378041364e-01   2.0973947271820317e-01   2.3949683587845783e-01   2.6694771358691488e-01   2.9182773888506580e-01   3.1389730352848400e-01   3.3294386554520211e-01   3.4878399613108935e-01   3.6126514616950733e-01   3.7026711536269535e-01   3.7570320982634631e-01   3.7752107699910364e-01   3.7570320982634636e-01   3.7026711536269535e-01   3.6126514616950733e-01   3.4878399613108935e-01   3.3294386554520217e-01   3.1389730352848411e-01   2.9182773888506591e-01   2.6694771358691494e-01   2.3949683587845783e-01   2.0973947271820317e-01   1.7796220378041372e-01   1.4447106153618236e-01   1.0958858399344180e-01   7.3650708479630803e-02   3.7003536381588084e-02   4.6232997855761376e-17   0.0000000000000000e+00   3.9248825342682390e-02   7.8119663041724324e-02   1.1623816568112270e-01   1.5323723124276697e-01   1.8876053849955182e-01   2.2246597858357936e-01   2.5402894968157269e-01   2.8314548312778298e-01   3.0953517078840698e-01   3.3294386554520211e-01   3.5314612887116636e-01   3.6994740192679015e-01   3.8318587926803765e-01   3.9273406712122483e-01   3.9850001121775497e-01   4.0042818236399302e-01   3.9850001121775502e-01   3.9273406712122483e-01   3.8318587926803765e-01   3.6994740192679015e-01   3.5314612887116642e-01   3.3294386554520228e-01   3.0953517078840703e-01   2.8314548312778298e-01   2.5402894968157269e-01   2.2246597858357936e-01   1.8876053849955188e-01   1.5323723124276700e-01   1.1623816568112270e-01   7.8119663041724463e-02   3.9248825342682488e-02   4.9038309182045671e-17   0.0000000000000000e+00   4.1116126660136344e-02   8.1836282544174424e-02   1.2176831029104945e-01   1.6052764264449224e-01   1.9774100604593270e-01   2.3305001546292128e-01   2.6611462583290457e-01   2.9661640688306473e-01   3.2426160978791929e-01   3.4878399613108935e-01   3.6994740192679015e-01   3.8754801200811473e-01   4.0141632287850776e-01   4.1141877512309727e-01   4.1745903965887149e-01   4.1947894543640646e-01   4.1745903965887154e-01   4.1141877512309727e-01   4.0141632287850776e-01   3.8754801200811473e-01   3.6994740192679021e-01   3.4878399613108946e-01   3.2426160978791940e-01   2.9661640688306479e-01   2.6611462583290457e-01   2.3305001546292128e-01   1.9774100604593278e-01   1.6052764264449226e-01   1.2176831029104945e-01   8.1836282544174563e-02   4.1116126660136448e-02   5.1371354783840229e-17   0.0000000000000000e+00   4.2587457201492047e-02   8.4764773909461480e-02   1.2612575950754393e-01   1.6627208509421523e-01   2.0481711960786175e-01   2.4138965329525786e-01   2.7563747266441341e-01   3.0723075249304088e-01   3.3586523222574716e-01   3.6126514616950733e-01   3.8318587926803765e-01   4.0141632287850776e-01   4.1578090786317445e-01   4.2614129541615442e-01   4.3239770934174865e-01   4.3448989695375001e-01   4.3239770934174870e-01   4.2614129541615442e-01   4.1578090786317445e-01   4.0141632287850776e-01   3.8318587926803771e-01   3.6126514616950750e-01   3.3586523222574721e-01   3.0723075249304094e-01   2.7563747266441341e-01   2.4138965329525786e-01   2.0481711960786181e-01   1.6627208509421526e-01   1.2612575950754393e-01   8.4764773909461619e-02   4.2587457201492145e-02   5.3209666156627327e-17   0.0000000000000000e+00   4.3648647249325129e-02   8.6876934164861530e-02   1.2926854871262719e-01   1.7041523647091342e-01   2.0992073234354033e-01   2.4740457680935371e-01   2.8250577995539417e-01   3.1488629800709572e-01   3.4423428887462887e-01   3.7026711536269535e-01   3.9273406712122483e-01   4.1141877512309727e-01   4.2614129541615442e-01   4.3675984208182572e-01   4.4317215271103283e-01   4.4531647324709089e-01   4.4317215271103283e-01   4.3675984208182572e-01   4.2614129541615442e-01   4.1141877512309727e-01   3.9273406712122488e-01   3.7026711536269552e-01   3.4423428887462898e-01   3.1488629800709578e-01   2.8250577995539417e-01   2.4740457680935371e-01   2.0992073234354042e-01   1.7041523647091344e-01   1.2926854871262719e-01   8.6876934164861683e-02   4.3648647249325233e-02   5.4535539356963789e-17   0.0000000000000000e+00   4.4289476963369497e-02   8.8152422052490853e-02   1.3116641112823102e-01   1.7291719596195235e-01   2.1300269367240546e-01   2.5103685900367667e-01   2.8665340215203611e-01   3.1950931633698210e-01   3.4928818114404403e-01   3.7570320982634631e-01   3.9850001121775497e-01   4.1745903965887149e-01   4.3239770934174865e-01   4.4317215271103283e-01   4.4967860598716791e-01   4.5185440846831570e-01   4.4967860598716797e-01   4.4317215271103283e-01   4.3239770934174865e-01   4.1745903965887149e-01   3.9850001121775502e-01   3.7570320982634642e-01   3.4928818114404414e-01   3.1950931633698215e-01   2.8665340215203611e-01   2.5103685900367667e-01   2.1300269367240551e-01   1.7291719596195235e-01   1.3116641112823102e-01   8.8152422052491006e-02   4.4289476963369601e-02   5.5336205501134351e-17   0.0000000000000000e+00   4.4503774803165738e-02   8.8578953926738993e-02   1.3180106930181598e-01   1.7375386832972309e-01   2.1403332262208868e-01   2.5225151901508786e-01   2.8804039538526466e-01   3.2105528528898442e-01   3.5097823728869965e-01   3.7752107699910364e-01   4.0042818236399302e-01   4.1947894543640646e-01   4.3448989695375001e-01   4.4531647324709089e-01   4.5185440846831570e-01   4.5404073872724504e-01   4.5185440846831576e-01   4.4531647324709089e-01   4.3448989695375001e-01   4.1947894543640646e-01   4.0042818236399308e-01   3.7752107699910376e-01   3.5097823728869976e-01   3.2105528528898447e-01   2.8804039538526466e-01   2.5225151901508786e-01   2.1403332262208877e-01   1.7375386832972312e-01   1.3180106930181598e-01   8.8578953926739132e-02   4.4503774803165849e-02   5.5603953736482039e-17   0.0000000000000000e+00   4.4289476963369497e-02   8.8152422052490867e-02   1.3116641112823102e-01   1.7291719596195235e-01   2.1300269367240546e-01   2.5103685900367667e-01   2.8665340215203616e-01   3.1950931633698215e-01   3.4928818114404403e-01   3.7570320982634636e-01   3.9850001121775502e-01   4.1745903965887154e-01   4.3239770934174870e-01   4.4317215271103283e-01   4.4967860598716797e-01   4.5185440846831576e-01   4.4967860598716802e-01   4.4317215271103283e-01   4.3239770934174870e-01   4.1745903965887154e-01   3.9850001121775508e-01   3.7570320982634647e-01   3.4928818114404414e-01   3.1950931633698221e-01   2.8665340215203616e-01   2.5103685900367667e-01   2.1300269367240554e-01   1.7291719596195237e-01   1.3116641112823102e-01   8.8152422052491006e-02   4.4289476963369608e-02   5.5336205501134351e-17   0.0000000000000000e+00   4.3648647249325129e-02   8.6876934164861530e-02   1.2926854871262719e-01   1.7041523647091342e-01   2.0992073234354033e-01   2.4740457680935371e-01   2.8250577995539417e-01   3.1488629800709572e-01   3.4423428887462887e-01   3.7026711536269535e-01   3.9273406712122483e-01   4.1141877512309727e-01   4.2614129541615442e-01   4.3675984208182572e-01   4.4317215271103283e-01   4.4531647324709089e-01   4.4317215271103283e-01   4.3675984208182572e-01   4.2614129541615442e-01   4.1141877512309727e-01   3.9273406712122488e-01   3.7026711536269552e-01   3.4423428887462898e-01   3.1488629800709578e-01   2.8250577995539417e-01   2.4740457680935371e-01   2.0992073234354042e-01   1.7041523647091344e-01   1.2926854871262719e-01   8.6876934164861683e-02   4.3648647249325233e-02   5.4535539356963789e-17   0.0000000000000000e+00   4.2587457201492047e-02   8.4764773909461480e-02   1.2612575950754393e-01   1.6627208509421523e-01   2.0481711960786175e-01   2.4138965329525786e-01   2.7563747266441341e-01   3.0723075249304088e-01   3.3586523222574716e-01   3.6126514616950733e-01   3.8318587926803765e-01   4.0141632287850776e-01   4.1578090786317445e-01   4.2614129541615442e-01   4.3239770934174865e-01   4.3448989695375001e-01   4.3239770934174870e-01   4.2614129541615442e-01   4.1578090786317445e-01   4.0141632287850776e-01   3.8318587926803771e-01   3.6126514616950750e-01   3.3586523222574721e-01   3.0723075249304094e-01   2.7563747266441341e-01   2.4138965329525786e-01   2.0481711960786181e-01   1.6627208509421526e-01   1.2612575950754393e-01   8.4764773909461619e-02   4.2587457201492145e-02   5.3209666156627327e-17   0.0000000000000000e+00   4.1116126660136344e-02   8.1836282544174424e-02   1.2176831029104945e-01   1.6052764264449224e-01   1.9774100604593270e-01   2.3305001546292128e-01   2.6611462583290457e-01   2.9661640688306473e-01   3.2426160978791929e-01   3.4878399613108935e-01   3.6994740192679015e-01   3.8754801200811473e-01   4.0141632287850776e-01   4.1141877512309727e-01   4.1745903965887149e-01   4.1947894543640646e-01   4.1745903965887154e-01   4.1141877512309727e-01   4.0141632287850776e-01   3.8754801200811473e-01   3.6994740192679021e-01   3.4878399613108946e-01   3.2426160978791940e-01   2.9661640688306479e-01   2.6611462583290457e-01   2.3305001546292128e-01   1.9774100604593278e-01   1.6052764264449226e-01   1.2176831029104945e-01   8.1836282544174563e-02   4.1116126660136448e-02   5.1371354783840229e-17   0.0000000000000000e+00   3.9248825342682390e-02   7.8119663041724338e-02   1.1623816568112270e-01   1.5323723124276700e-01   1.8876053849955182e-01   2.2246597858357939e-01   2.5402894968157269e-01   2.8314548312778298e-01   3.0953517078840698e-01   3.3294386554520217e-01   3.5314612887116642e-01   3.6994740192679021e-01   3.8318587926803771e-01   3.9273406712122488e-01   3.9850001121775502e-01   4.0042818236399308e-01   3.9850001121775508e-01   3.9273406712122488e-01   3.8318587926803771e-01   3.6994740192679021e-01   3.5314612887116648e-01   3.3294386554520228e-01   3.0953517078840703e-01   2.8314548312778304e-01   2.5402894968157269e-01   2.2246597858357939e-01   1.8876053849955191e-01   1.5323723124276700e-01   1.1623816568112270e-01   7.8119663041724477e-02   3.9248825342682488e-02   4.9038309182045677e-17   0.0000000000000000e+00   3.7003536381588008e-02   7.3650708479630705e-02   1.0958858399344186e-01   1.4447106153618239e-01   1.7796220378041372e-01   2.0973947271820326e-01   2.3949683587845791e-01   2.6694771358691499e-01   2.9182773888506591e-01   3.1389730352848411e-01   3.3294386554520228e-01   3.4878399613108946e-01   3.6126514616950750e-01   3.7026711536269552e-01   3.7570320982634642e-01   3.7752107699910376e-01   3.7570320982634647e-01   3.7026711536269552e-01   3.6126514616950750e-01   3.4878399613108946e-01   3.3294386554520228e-01   3.1389730352848422e-01   2.9182773888506602e-01   2.6694771358691505e-01   2.3949683587845791e-01   2.0973947271820326e-01   1.7796220378041377e-01   1.4447106153618242e-01   1.0958858399344186e-01   7.3650708479630830e-02   3.7003536381588098e-02   4.6232997855761389e-17   0.0000000000000000e+00   3.4401883136948308e-02   6.8472457333305509e-02   1.0188360433469031e-01   1.3431355653108856e-01   1.6544999575483377e-01   1.9499306107529216e-01   2.2265823662354550e-01   2.4817909163574076e-01   2.7130984632699207e-01   2.9182773888506591e-01   3.0953517078840703e-01   3.2426160978791940e-01   3.3586523222574721e-01   3.4423428887462898e-01   3.4928818114404414e-01   3.5097823728869976e-01   3.4928818114404414e-01   3.4423428887462898e-01   3.3586523222574721e-01   3.2426160978791940e-01   3.0953517078840703e-01   2.9182773888506602e-01   2.7130984632699212e-01   2.4817909163574081e-01   2.2265823662354550e-01   1.9499306107529216e-01   1.6544999575483382e-01   1.3431355653108859e-01   1.0188360433469031e-01   6.8472457333305620e-02   3.4401883136948391e-02   4.2982437486598636e-17   0.0000000000000000e+00   3.1468920951717508e-02   6.2634778992007908e-02   9.3197429870952184e-02  