<VTKFile type="UnstructuredGrid" version="0.1" byte_order="LittleEndian">
<UnstructuredGrid>
<Piece NumberOfPoints="81" NumberOfCells="128">
<Points>
<DataArray type="Float64" NumberOfComponents="3" Format="ascii">                        0                        0                        0                     0.125                        0                        0                      0.25                        0                        0                     0.375                        0                        0                       0.5                        0                        0                     0.625                        0                        0                      0.75                        0                        0                     0.875                        0                        0                         1                        0                        0                         0                    0.125                        0                     0.125                    0.125                        0                      0.25                    0.125                        0                     0.375                    0.125                        0                       0.5                    0.125                        0                     0.625                    0.125                        0                      0.75                    0.125                        0                     0.875                    0.125                        0                         1                    0.125                        0                         0                     0.25                        0                     0.125                     0.25                        0                      0.25                     0.25                        0                     0.375                     0.25                        0                       0.5                     0.25                        0                     0.625                     0.25                        0                      0.75                     0.25                        0                     0.875                     0.25                        0                         1                     0.25                        0                         0                    0.375                        0                     0.125                    0.375                        0                      0.25                    0.375                        0                     0.375                    0.375                        0                       0.5                    0.375                        0                     0.625                    0.375                        0                      0.75                    0.375                        0                     0.875                    0.375                        0                         1                    0.375                        0                         0                      0.5                        0                     0.125                      0.5                        0                      0.25                      0.5                        0                     0.375                      0.5                        0                       0.5                      0.5                        0                     0.625                      0.5                        0                      0.75                      0.5                        0                     0.875                      0.5                        0                         1                      0.5                        0                         0                    0.625                        0                     0.125                    0.625                        0                      0.25                    0.625                        0                     0.375                    0.625                        0                       0.5                    0.625                        0                     0.625                    0.625                        0                      0.75                    0.625                        0                     0.875                    0.625                        0                         1                    0.625                        0                         0                     0.75                        0                     0.125                     0.75                        0                      0.25                     0.75                        0                     0.375                     0.75                        0                       0.5                     0.75                        0                     0.625                     0.75                        0                      0.75                     0.75                        0                     0.875                     0.75                        0                         1                     0.75                        0                         0                    0.875                        0                     0.125                    0.875                        0                      0.25                    0.875                        0                     0.375                    0.875                        0                       0.5                    0.875                        0                     0.625                    0.875                        0                      0.75                    0.875                        0                     0.875                    0.875                        0                         1                    0.875                        0                         0                        1                        0                     0.125                        1                        0                      0.25                        1                        0                     0.375                        1                        0                       0.5                        1                        0                     0.625                        1                        0                      0.75                        1                        0                     0.875                        1                        0                         1                        1                        0 </DataArray>
</Points>
<PointData Scalars="scalars">
<DataArray type="Int64" Name="v_bdry" Format="ascii"> 1  1  1  1  1  1  1  1  1  1  0  0  0  0  0  0  0  1  1  0  0  0  0  0  0  0  1  1  0  0  0  0  0  0  0  1  1  0  0  0  0  0  0  0  1  1  0  0  0  0  0  0  0  1  1  0  0  0  0  0  0  0  1  1  0  0  0  0  0  0  0  1  1  1  1  1  1  1  1  1  1 </DataArray>
</PointData>
<Cells>
<DataArray type="Int64" Name="offsets" Format="ascii"> 3  6  9  12  15  18  21  24  27  30  33  36  39  42  45  48  51  54  57  60  63  66  69  72  75  78  81  84  87  90  93  96  99  102  105  108  111  114  117  120  123  126  129  132  135  138  141  144  147  150  153  156  159  162  165  168  171  174  177  180  183  186  189  192  195  198  201  204  207  210  213  216  219  222  225  228  231  234  237  240  243  246  249  252  255  258  261  264  267  270  273  276  279  282  285  288  291  294  297  300  303  306  309  312  315  318  321  324  327  330  333  336  339  342  345  348  351  354  357  360  363  366  369  372  375  378  381  384 </DataArray>
<DataArray type="Int64" Name="connectivity" Format="ascii">
 0  1  9  9  1  10  1  2  10  10  2  11  2  3  11  11  3  12  3  4  12  12  4  13  4  5  13  13  5  14  5  6  14  14  6  15  6  7  15  15  7  16  7  8  16  16  8  17  9  10  18  18  10  19  10  11  19  19  11  20  11  12  20  20  12  21  12  13  21  21  13  22  13  14  22  22  14  23  14  15  23  23  15  24  15  16  24  24  16  25  16  17  25  25  17  26  18  19  27  27  19  28  19  20  28  28  20  29  20  21  29  29  21  30  21  22  30  30  22  31  22  23  31  31  23  32  23  24  32  32  24  33  24  25  33  33  25  34  25  26  34  34  26  35  27  28  36  36  28  37  28  29  37  37  29  38  29  30  38  38  30  39  30  31  39  39  31  40  31  32  40  40  32  41  32  33  41  41  33  42  33  34  42  42  34  43  34  35  43  43  35  44  36  37  45  45  37  46  37  38  46  46  38  47  38  39  47  47  39  48  39  40  48  48  40  49  40  41  49  49  41  50  41  42  50  50  42  51  42  43  51  51  43  52  43  44  52  52  44  53  45  46  54  54  46  55  46  47  55  55  47  56  47  48  56  56  48  57  48  49  57  57  49  58  49  50  58  58  50  59  50  51  59  59  51  60  51  52  60  60  52  61  52  53  61  61  53  62  54  55  63  63  55  64  55  56  64  64  56  65  56  57  65  65  57  66  57  58  66  66  58  67  58  59  67  67  59  68  59  60  68  68  60  69  60  61  69  69  61  70  61  62  70  70  62  71  63  64  72  72  64  73  64  65  73  73  65  74  65  66  74  74  66  75  66  67  75  75  67  76  67  68  76  76  68  77  68  69  77  77  69  78  69  70  78  78  70  79  70  71  79  79  71  80 </DataArray>
<DataArray type="Int64" Name="types" Format="ascii"> 5  5  5  5  5  5  5  5  5  5  5  5  5  5  5  5  5  5  5  5  5  5  5  5  5  5  5  5  5  5  5  5  5  5  5  5  5  5  5  5  5  5  5  5  5  5  5  5  5  5  5  5  5  5  5  5  5  5  5  5  5  5  5  5  5  5  5  5  5  5  5  5  5  5  5  5  5  5  5  5  5  5  5  5  5  5  5  5  5  5  5  5  5  5  5  5  5  5  5  5  5  5  5  5  5  5  5  5  5  5  5  5  5  5  5  5  5  5  5  5  5  5  5  5  5  5  5  5 </DataArray>
</Cells>
</Piece>
</UnstructuredGrid>
</VTKFile>
