<VTKFile type="UnstructuredGrid" version="0.1" byte_order="LittleEndian">
<UnstructuredGrid>
<Piece NumberOfPoints="9" NumberOfCells="8">
<Points>
<DataArray type="Float64" NumberOfComponents="3" Format="ascii">                        0                        0                        0                       0.5                        0                        0                         1                        0                        0                         0                      0.5                        0                       0.5                      0.5                        0                         1                      0.5                        0                         0                        1                        0                       0.5                        1                        0                         1                        1                        0 </DataArray>
</Points>
<PointData Scalars="scalars">
<DataArray type="Int64" Name="v_bdry" Format="ascii"> 1  1  1  1  0  1  1  1  1 </DataArray>
</PointData>
<Cells>
<DataArray type="Int64" Name="offsets" Format="ascii"> 3  6  9  12  15  18  21  24 </DataArray>
<DataArray type="Int64" Name="connectivity" Format="ascii">
 0  1  3  3  1  4  1  2  4  4  2  5  3  4  6  6  4  7  4  5  7  7  5  8 </DataArray>
<DataArray type="Int64" Name="types" Format="ascii"> 5  5  5  5  5  5  5  5 </DataArray>
</Cells>
</Piece>
</UnstructuredGrid>
</VTKFile>
