<VTKFile type="UnstructuredGrid" version="0.1" byte_order="LittleEndian">
<UnstructuredGrid>
<Piece NumberOfPoints="25" NumberOfCells="32">
<Points>
<DataArray type="Float64" NumberOfComponents="3" Format="ascii">                        0                        0                        0                      0.25                        0                        0                       0.5                        0                        0                      0.75                        0                        0                         1                        0                        0                         0                     0.25                        0                      0.25                     0.25                        0                       0.5                     0.25                        0                      0.75                     0.25                        0                         1                     0.25                        0                         0                      0.5                        0                      0.25                      0.5                        0                       0.5                      0.5                        0                      0.75                      0.5                        0                         1                      0.5                        0                         0                     0.75                        0                      0.25                     0.75                        0                       0.5                     0.75                        0                      0.75                     0.75                        0                         1                     0.75                        0                         0                        1                        0                      0.25                        1                        0                       0.5                        1                        0                      0.75                        1                        0                         1                        1                        0 </DataArray>
</Points>
<PointData Scalars="scalars">
<DataArray type="Int64" Name="v_bdry" Format="ascii"> 1  1  1  1  1  1  0  0  0  1  1  0  0  0  1  1  0  0  0  1  1  1  1  1  1 </DataArray>
</PointData>
<Cells>
<DataArray type="Int64" Name="offsets" Format="ascii"> 3  6  9  12  15  18  21  24  27  30  33  36  39  42  45  48  51  54  57  60  63  66  69  72  75  78  81  84  87  90  93  96 </DataArray>
<DataArray type="Int64" Name="connectivity" Format="ascii">
 0  1  5  5  1  6  1  2  6  6  2  7  2  3  7  7  3  8  3  4  8  8  4  9  5  6  10  10  6  11  6  7  11  11  7  12  7  8  12  12  8  13  8  9  13  13  9  14  10  11  15  15  11  16  11  12  16  16  12  17  12  13  17  17  13  18  13  14  18  18  14  19  15  16  20  20  16  21  16  17  21  21  17  22  17  18  22  22  18  23  18  19  23  23  19  24 </DataArray>
<DataArray type="Int64" Name="types" Format="ascii"> 5  5  5  5  5  5  5  5  5  5  5  5  5  5  5  5  5  5  5  5  5  5  5  5  5  5  5  5  5  5  5  5 </DataArray>
</Cells>
</Piece>
</UnstructuredGrid>
</VTKFile>
