<VTKFile type="UnstructuredGrid" version="0.1" byte_order="LittleEndian">
<UnstructuredGrid>
<Piece NumberOfPoints="289" NumberOfCells="512">
<Points>
<DataArray type="Float64" NumberOfComponents="3" Format="ascii">                        0                        0                        0                    0.0625                        0                        0                     0.125                        0                        0                    0.1875                        0                        0                      0.25                        0                        0                    0.3125                        0                        0                     0.375                        0                        0                    0.4375                        0                        0                       0.5                        0                        0                    0.5625                        0                        0                     0.625                        0                        0                    0.6875                        0                        0                      0.75                        0                        0                    0.8125                        0                        0                     0.875                        0                        0                    0.9375                        0                        0                         1                        0                        0                         0                   0.0625                        0                    0.0625                   0.0625                        0                     0.125                   0.0625                        0                    0.1875                   0.0625                        0                      0.25                   0.0625                        0                    0.3125                   0.0625                        0                     0.375                   0.0625                        0                    0.4375                   0.0625                        0                       0.5                   0.0625                        0                    0.5625                   0.0625                        0                     0.625                   0.0625                        0                    0.6875                   0.0625                        0                      0.75                   0.0625                        0                    0.8125                   0.0625                        0                     0.875                   0.0625                        0                    0.9375                   0.0625                        0                         1                   0.0625                        0                         0                    0.125                        0                    0.0625                    0.125                        0                     0.125                    0.125                        0                    0.1875                    0.125                        0                      0.25                    0.125                        0                    0.3125                    0.125                        0                     0.375                    0.125                        0                    0.4375                    0.125                        0                       0.5                    0.125                        0                    0.5625                    0.125                        0                     0.625                    0.125                        0                    0.6875                    0.125                        0                      0.75                    0.125                        0                    0.8125                    0.125                        0                     0.875                    0.125                        0                    0.9375                    0.125                        0                         1                    0.125                        0                         0                   0.1875                        0                    0.0625                   0.1875                        0                     0.125                   0.1875                        0                    0.1875                   0.1875                        0                      0.25                   0.1875                        0                    0.3125                   0.1875                        0                     0.375                   0.1875                        0                    0.4375                   0.1875                        0                       0.5                   0.1875                        0                    0.5625                   0.1875                        0                     0.625                   0.1875                        0                    0.6875                   0.1875                        0                      0.75                   0.1875                        0                    0.8125                   0.1875                        0                     0.875                   0.1875                        0                    0.9375                   0.1875                        0                         1                   0.1875                        0                         0                     0.25                        0                    0.0625                     0.25                        0                     0.125                     0.25                        0                    0.1875                     0.25                        0                      0.25                     0.25                        0                    0.3125                     0.25                        0                     0.375                     0.25                        0                    0.4375                     0.25                        0                       0.5                     0.25                        0                    0.5625                     0.25                        0                     0.625                     0.25                        0                    0.6875                     0.25                        0                      0.75                     0.25                        0                    0.8125                     0.25                        0                     0.875                     0.25                        0                    0.9375                     0.25                        0                         1                     0.25                        0                         0                   0.3125                        0                    0.0625                   0.3125                        0                     0.125                   0.3125                        0                    0.1875                   0.3125                        0                      0.25                   0.3125                        0                    0.3125                   0.3125                        0                     0.375                   0.3125                        0                    0.4375                   0.3125                        0                       0.5                   0.3125                        0                    0.5625                   0.3125                        0                     0.625                   0.3125                        0                    0.6875                   0.3125                        0                      0.75                   0.3125                        0                    0.8125                   0.3125                        0                     0.875                   0.3125                        0                    0.9375                   0.3125                        0                         1                   0.3125                        0                         0                    0.375                        0                    0.0625                    0.375                        0                     0.125                    0.375                        0                    0.1875                    0.375                        0                      0.25                    0.375                        0                    0.3125                    0.375                        0                     0.375                    0.375                        0                    0.4375                    0.375                        0                       0.5                    0.375                        0                    0.5625                    0.375                        0                     0.625                    0.375                        0                    0.6875                    0.375                        0                      0.75                    0.375                        0                    0.8125                    0.375                        0                     0.875                    0.375                        0                    0.9375                    0.375                        0                         1                    0.375                        0                         0                   0.4375                        0                    0.0625                   0.4375                        0                     0.125                   0.4375                        0                    0.1875                   0.4375                        0                      0.25                   0.4375                        0                    0.3125                   0.4375                        0                     0.375                   0.4375                        0                    0.4375                   0.4375                        0                       0.5                   0.4375                        0                    0.5625                   0.4375       
[...]
<PointData Scalars="scalars">
<DataArray type="Int64" Name="v_bdry" Format="ascii"> 1  1  1  1  1  1  1  1  1  1  1  1  1  1  1  1  1  1  0  0  0  0  0  0  0  0  0  0  0  0  0  0  0  1  1  0  0  0  0  0  0  0  0  0  0  0  0  0  0  0  1  1  0  0  0  0  0  0  0  0  0  0  0  0  0  0  0  1  1  0  0  0  0  0  0  0  0  0  0  0  0  0  0  0  1  1  0  0  0  0  0  0  0  0  0  0  0  0  0  0  0  1  1  0  0  0  0  0  0  0  0  0  0  0  0  0  0  0  1  1  0  0  0  0  0  0  0  0  0  0  0  0  0  0  0  1  1  0  0  0  0  0  0  0  0  0  0  0  0  0  0  0  1  1  0  0  0  0  0  0  0  0  0  0  0  0  0  0  0  1  1  0  0  0  0  0  0  0  0  0  0  0  0  0  0  0  1  1  0  0  0  0  0  0  0  0  0  0  0  0  0  0  0  1  1  0  0  0  0  0  0  0  0  0  0  0  0  0  0  0  1  1  0  0  0  0  0  0  0  0  0  0  0  0  0  0  0  1  1  0  0  0  0  0  0  0  0  0  0  0  0  0  0  0  1  1  0  0  0  0  0  0  0  0  0  0  0  0  0  0  0  1  1  1  1  1  1  1  1  1  1  1  1  1  1  1  1  1  1 </DataArray>
</PointData>
<Cells>
<DataArray type="Int64" Name="offsets" Format="ascii"> 3  6  9  12  15  18  21  24  27  30  33  36  39  42  45  48  51  54  57  60  63  66  69  72  75  78  81  84  87  90  93  96  99  102  105  108  111  114  117  120  123  126  129  132  135  138  141  144  147  150  153  156  159  162  165  168  171  174  177  180  183  186  189  192  195  198  201  204  207  210  213  216  219  222  225  228  231  234  237  240  243  246  249  252  255  258  261  264  267  270  273  276  279  282  285  288  291  294  297  300  303  306  309  312  315  318  321  324  327  330  333  336  339  342  345  348  351  354  357  360  363  366  369  372  375  378  381  384  387  390  393  396  399  402  405  408  411  414  417  420  423  426  429  432  435  438  441  444  447  450  453  456  459  462  465  468  471  474  477  480  483  486  489  492  495  498  501  504  507  510  513  516  519  522  525  528  531  534  537  540  543  546  549  552  555  558  561  564  567  570  573  576  579  582  585  588  591  594  597  600  603  606  609  612  615  618  621  624  627  630  633  636  639  642  645  648  651  654  657  660  663  666  669  672  675  678  681  684  687  690  693  696  699  702  705  708  711  714  717  720  723  726  729  732  735  738  741  744  747  750  753  756  759  762  765  768  771  774  777  780  783  786  789  792  795  798  801  804  807  810  813  816  819  822  825  828  831  834  837  840  843  846  849  852  855  858  861  864  867  870  873  876  879  882  885  888  891  894  897  900  903  906  909  912  915  918  921  924  927  930  933  936  939  942  945  948  951  954  957  960  963  966  969  972  975  978  981  984  987  990  993  996  999  1002  1005  1008  1011  1014  1017  1020  1023  1026  1029  1032  1035  1038  1041  1044  1047  1050  1053  1056  1059  1062  1065  1068  1071  1074  1077  1080  1083  1086  1089  1092  1095  1098  1101  1104  1107  1110  1113  1116  1119  1122  1125  1128  1131  1134  1137  1140  1143  1146  1149  1152  1155  1158  1161  1164  1167  1170  1173  1176  1179  1182  1185  1188  1191  1194  1197  1200  1203  1206  1209  1212  1215  1218  1221  1224  1227  1230  1233  1236  1239  1242  1245  1248  1251  1254  1257  1260  1263  1266  1269  1272  1275  1278  1281  1284  1287  1290  1293  1296  1299  1302  1305  1308  1311  1314  1317  1320  1323  1326  1329  1332  1335  1338  1341  1344  1347  1350  1353  1356  1359  1362  1365  1368  1371  1374  1377  1380  1383  1386  1389  1392  1395  1398  1401  1404  1407  1410  1413  1416  1419  1422  1425  1428  1431  1434  1437  1440  1443  1446  1449  1452  1455  1458  1461  1464  1467  1470  1473  1476  1479  1482  1485  1488  1491  1494  1497  1500  1503  1506  1509  1512  1515  1518  1521  1524  1527  1530  1533  1536 </DataArray>
<DataArray type="Int64" Name="connectivity" Format="ascii">
 0  1  17  17  1  18  1  2  18  18  2  19  2  3  19  19  3  20  3  4  20  20  4  21  4  5  21  21  5  22  5  6  22  22  6  23  6  7  23  23  7  24  7  8  24  24  8  25  8  9  25  25  9  26  9  10  26  26  10  27  10  11  27  27  11  28  11  12  28  28  12  29  12  13  29  29  13  30  13  14  30  30  14  31  14  15  31  31  15  32  15  16  32  32  16  33  17  18  34  34  18  35  18  19  35  35  19  36  19  20  36  36  20  37  20  21  37  37  21  38  21  22  38  38  22  39  22  23  39  39  23  40  23  24  40  40  24  41  24  25  41  41  25  42  25  26  42  42  26  43  26  27  43  43  27  44  27  28  44  44  28  45  28  29  45  45  29  46  29  30  46  46  30  47  30  31  47  47  31  48  31  32  48  48  32  49  32  33  49  49  33  50  34  35  51  51  35  52  35  36  52  52  36  53  36  37  53  53  37  54  37  38  54  54  38  55  38  39  55  55  39  56  39  40  56  56  40  57  40  41  57  57  41  58  41  42  58  58  42  59  42  43  59  59  43  60  43  44  60  60  44  61  44  45  61  61  45  62  45  46  62  62  46  63  46  47  63  63  47  64  47  48  64  64  48  65  48  49  65  65  49  66  49  50  66  66  50  67  51  52  68  68  52  69  52  53  69  69  53  70  53  54  70  70  54  71  54  55  71  71  55  72  55  56  72  72  56  73  56  57  73  73  57  74  57  58  74  74  58  75  58  59  75  75  59  76  59  60  76  76  60  77  60  61  77  77  61  78  61  62  78  78  62  79  62  63  79  79  63  80  63  64  80  80  64  81  64  65  81  81  65  82  65  66  82  82  66  83  66  67  83  83  67  84  68  69  85  85  69  86  69  70  86  86  70  87  70  71  87  87  71  88  71  72  88  88  72  89  72  73  89  89  73  90  73  74  90  90  74  91  74  75  91  91  75  92  75  76  92  92  76  93  76  77  93  93  77  94  77  78  94  94  78  95  78  79  95  95  79  96  79  80  96  96  80  97  80  81  97  97  81  98  81  82  98  98  82  99  82  83  99  99  83  100  83  84  100  100  84  101  85  86  102  102  86  103  86  87  103  103  87  104  87  88  104  104  88  105  88  89  105  105  89  106  89  90  106  106  90  107  90  91  107  107  91  108  91  92  108  108  92  109  92  93  109  109  93  110  93  94  110  110  94  111  94  95  111  111  95  112  95  96  112  112  96  113  96  97  113  113  97  114  97  98  114  114  98  115  98  99  115  115  99  116  99  100  116  116  100  117  100  101  117  117  101  118  102  103  119  119  103  120  103  104  120  120  104  121  104  105  121  121  105  122  105  106  122  122  106  123  106  107  123  123  107  124  107  108  124  124  108  125  108  109  125  125  109  126  109  110  126  126  110  127  110  111  127  127  111  128  111  112  128  128  112  129  112  113  129  129  113  130  113  114  130  130  114  131  114  115  131  131  115  132  115  116  132  132  116  133  116  117  133  133  117  134  117  118  134  134  118  135  119  120  136  136  120  137  120  121  137  137  121  138  121  122  138  138  122  139  122  123  139  139  123  140  123  124  140  140  124  141  124  125  141  141  125  142  125  126  142  142  126  143  126  127  143  143  127  144  127  128  144  144  128  145  128  129  145  145  129  146  129  130  146  146  130  147  130  131  147  147  131  148  131  132  148  148  132  149  132  133  149  149  133  150  133  134  150  150  134  151  134  135  151  151  135  152  136  137  153  153  137  154  137  138  154  154  138  155  138  139  155  155  139  156  139  140  156  156  140  157  140  141  157  157  141  158  141  142  158  158  142  159  142  143  159  159  143  160  143  144  160  160  144  161  144  145  161  161  145  162  145  146  162  162  146  163  146  147  163  163  147  164  147  148  164  164  148  165  148  149  165  165  149  166  149  150  166  166  150  167  150  151  167  167  151  168  151  152  168  168  152  169  153  154  170  170  154  171  154  155  171  171  155  172  155  156  172  172  156  173  156  157  173  173  157  174  157  158  174  174  158  175  158  159  175  175  159  176  159  160  176  176  160  177  160  161  177  177  161  178  161  162  178  178  162  179  162  163  179  179  163  180  163  164  180  180  164  181  164  165  181  181  165  182  165  166  182  182  166  183  166  167  183  183  167  184  167  168  184  184  168  185  168  169  185  185  169  186  170  171  187  187  171  188  171  172  188  188  172  189  172  173  189  189  173  190  173  174  190  190  174  191  174  175  191  191  175  192  175  176  192  192  176  193  176  177  193  193  177  194  177  178  194  194  178  195  178  179  195  195  179  196  179  180  196  196  180  197  180  181  197  197  181  198  181  182  198  198  182  199  182  183  199  199  183  200  183  184  200  200  184  201  184  185  201  201  185  202  185  186  202  202  186  203  187  188  204  204  188  205  188  189  205  205  189  206  189  190  206  206  190  207  190  191  207  207  191  208  191  192  208  208  192  209  192  193  209  209  193  210  193  194  210  210  194  211  194  195  211  211  195  212  195  196  212  212  196  213  196  197  213  213  197  214  197  198  214  214  198  215  198  199  215  215  199  216  199  200  216  216  200  217  200  201  217  217  201  218  201  202  218  218  202  219  202  203  219  219  203  220  204  205  221  221  205  222  205  206  222  222  206  223  206  207  223  223  207  224  207  208  224  224  208  225  208  209  225  225  209  226  209  210  226  226  210  227  210  211  227  227  211  228  211  212  228  228  212  229  212  213  229  229  213  230  213  214  230  230  214  231  214  215  231  231  215  232  215  216  232  232  216  233  216  217  233  233  217  234  217  218  234  234  218  235  218  219  235  235  219  236  219  220  236  236  220  237  221  222  238  238  222  239  222  223  239  239  223  240  223  224  240  240  224  241  224  225  241  241  225  242  225  226  242  242  226  243  226  227  243  243  227  244  227  228  244  244  228  245  228  229  245  245  229  246  229  230  246  246  230  247  230  231  247  247  231  248  231  232  248  248  232  249  232  233  249  249  233  250  233  234  250  250  234  251  234  235  251  251  235  252  235  236  252  252  236  253  236  237  253  253  237  254  238  239  255  255  239  256  239  240  256  256  240  257  240  241  257  257  241  258  241  242  258  258  242  259  242  243  259  259  243  260  243  244  260  260  244  261  244  245  261  261  245  262  245  246  262  262  246  263  246  247  263  263  247  264  247  248  264  264  248  265  248  249  265  265  249  266  249  250  266  266  250  267  250  251  267  267  251  268  251  252  268  268  252  269  252  253  269  269  253  270  253  254  270  270  254  271  255  256  272  272  256  273  256  257  273  273  257  274  257  258  274  274  258  275  258  259  275  275  259  276  259  260  276  276  260  277  260  261  277  277  261  278  261  262  278  278  262  279  262  263  279  279  263  280  263  264  280  280  264  281  264  265  281  281  265  282  265  266  282  282  266  283  266  267  283  283  267  284  267  268  284  284  268  285  268  269  285  285  269  286  269  270  286  286  270  287  270  271  287  287  271  288 </DataArray>
<DataArray type="Int64" Name="types" Format="ascii"> 5  5  5  5  5  5  5  5  5  5  5  5  5  5  5  5  5  5  5  5  5  5  5  5  5  5  5  5  5  5  5  5  5  5  5  5  5  5  5  5  5  5  5  5  5  5  5  5  5  5  5  5  5  5  5  5  5  5  5  5  5  5  5  5  5  5  5  5  5  5  5  5  5  5  5  5  5  5  5  5  5  5  5  5  5  5  5  5  5  5  5  5  5  5  5  5  5  5  5  5  5  5  5  5  5  5  5  5  5  5  5  5  5  5  5  5  5  5  5  5  5  5  5  5  5  5  5  5  5  5  5  5  5  5  5  5  5  5  5  5  5  5  5  5  5  5  5  5  5  5  5  5  5  5  5  5  5  5  5  5  5  5  5  5  5  5  5  5  5  5  5  5  5  5  5  5  5  5  5  5  5  5  5  5  5  5  5  5  5  5  5  5  5  5  5  5  5  5  5  5  5  5  5  5  5  5  5  5  5  5  5  5  5  5  5  5  5  5  5  5  5  5  5  5  5  5  5  5  5  5  5  5  5  5  5  5  5  5  5  5  5  5  5  5  5  5  5  5  5  5  5  5  5  5  5  5  5  5  5  5  5  5  5  5  5  5  5  5  5  5  5  5  5  5  5  5  5  5  5  5  5  5  5  5  5  5  5  5  5  5  5  5  5  5  5  5  5  5  5  5  5  5  5  5  5  5  5  5  5  5  5  5  5  5  5  5  5  5  5  5  5  5  5  5  5  5  5  5  5  5  5  5  5  5  5  5  5  5  5  5  5  5  5  5  5  5  5  5  5  5  5  5  5  5  5  5  5  5  5  5  5  5  5  5  5  5  5  5  5  5  5  5  5  5  5  5  5  5  5  5  5  5  5  5  5  5  5  5  5  5  5  5  5  5  5  5  5  5  5  5  5  5  5  5  5  5  5  5  5  5  5  5  5  5  5  5  5  5  5  5  5  5  5  5  5  5  5  5  5  5  5  5  5  5  5  5  5  5  5  5  5  5  5  5  5  5  5  5  5  5  5  5  5  5  5  5  5  5  5  5  5  5  5  5  5  5  5  5  5  5  5  5  5  5  5  5  5  5  5  5  5  5  5  5  5  5  5  5  5  5  5  5  5  5  5  5  5  5  5  5  5  5  5  5  5  5  5  5  5  5  5  5 </DataArray>
</Cells>
</Piece>
</UnstructuredGrid>
</VTKFile>
