<VTKFile type="UnstructuredGrid" version="0.1" byte_order="LittleEndian">
<UnstructuredGrid>
<Piece NumberOfPoints="4886" NumberOfCells="24192">
<Points>
<DataArray type="Float64" NumberOfComponents="3" Format="ascii"> -2.3094010767585029e+00 -2.3094010767585029e+00 -2.3094010767585034e+00  -2.1046088784079209e+00 -2.4052672896090526e+00 -2.4052672896090530e+00  -1.8740851426632728e+00 -2.4987801902176972e+00 -2.4987801902176972e+00  -1.6169041669088868e+00 -2.5870466670542185e+00 -2.5870466670542185e+00  -1.3333333333333335e+00 -2.6666666666666670e+00 -2.6666666666666670e+00  -1.0252291892601133e+00 -2.7339445046936359e+00 -2.7339445046936355e+00  -6.9631062382279141e-01 -2.7852424952911656e+00 -2.7852424952911656e+00  -3.5218036253024970e-01 -2.8174429002419967e+00 -2.8174429002419967e+00   0.0000000000000000e+00 -2.8284271247461907e+00 -2.8284271247461903e+00   3.5218036253024970e-01 -2.8174429002419967e+00 -2.8174429002419967e+00   6.9631062382279174e-01 -2.7852424952911656e+00 -2.7852424952911656e+00   1.0252291892601135e+00 -2.7339445046936359e+00 -2.7339445046936355e+00   1.3333333333333335e+00 -2.6666666666666670e+00 -2.6666666666666670e+00   1.6169041669088868e+00 -2.5870466670542185e+00 -2.5870466670542185e+00   1.8740851426632728e+00 -2.4987801902176972e+00 -2.4987801902176972e+00   2.1046088784079204e+00 -2.4052672896090526e+00 -2.4052672896090530e+00   2.3094010767585029e+00 -2.3094010767585029e+00 -2.3094010767585034e+00  -2.4052672896090526e+00 -2.1046088784079209e+00 -2.4052672896090530e+00  -2.1998877636914815e+00 -2.1998877636914815e+00 -2.5141574442188355e+00  -1.9661566092456972e+00 -2.2938493774533133e+00 -2.6215421456609298e+00  -1.7025130615174973e+00 -2.3835182861244961e+00 -2.7240208984279954e+00  -1.4087214501209984e+00 -2.4652625377117472e+00 -2.8174429002419967e+00  -1.0864289525102224e+00 -2.5350008891905187e+00 -2.8971438733605934e+00  -7.3960026163363901e-01 -2.5886009157177363e+00 -2.9584010465345552e+00  -3.7463432463267765e-01 -2.6224402724287428e+00 -2.9970745970614212e+00   0.0000000000000000e+00 -2.6340184314740731e+00 -3.0103067788275117e+00   3.7463432463267737e-01 -2.6224402724287428e+00 -2.9970745970614212e+00   7.3960026163363901e-01 -2.5886009157177363e+00 -2.9584010465345552e+00   1.0864289525102224e+00 -2.5350008891905187e+00 -2.8971438733605934e+00   1.4087214501209984e+00 -2.4652625377117472e+00 -2.8174429002419967e+00   1.7025130615174970e+00 -2.3835182861244961e+00 -2.7240208984279954e+00   1.9661566092456972e+00 -2.2938493774533133e+00 -2.6215421456609298e+00   2.1998877636914815e+00 -2.1998877636914815e+00 -2.5141574442188355e+00   2.4052672896090526e+00 -2.1046088784079209e+00 -2.4052672896090530e+00  -2.4987801902176972e+00 -1.8740851426632728e+00 -2.4987801902176972e+00  -2.2938493774533133e+00 -1.9661566092456972e+00 -2.6215421456609298e+00  -2.0579830217101067e+00 -2.0579830217101067e+00 -2.7439773622801411e+00  -1.7888543819998322e+00 -2.1466252583997982e+00 -2.8621670111997313e+00  -1.4855627054164151e+00 -2.2283440581246228e+00 -2.9711254108328298e+00  -1.1493915422653815e+00 -2.2987830845307631e+00 -3.0650441127076844e+00  -7.8446454055273596e-01 -2.3533936216582085e+00 -3.1378581622109447e+00  -3.9801487608399555e-01 -2.3880892565039744e+00 -3.1841190086719653e+00   0.0000000000000000e+00 -2.3999999999999995e+00 -3.2000000000000006e+00   3.9801487608399555e-01 -2.3880892565039744e+00 -3.1841190086719653e+00   7.8446454055273596e-01 -2.3533936216582085e+00 -3.1378581622109447e+00   1.1493915422653813e+00 -2.2987830845307631e+00 -3.0650441127076844e+00   1.4855627054164149e+00 -2.2283440581246228e+00 -2.9711254108328298e+00   1.7888543819998322e+00 -2.1466252583997982e+00 -2.8621670111997313e+00   2.0579830217101067e+00 -2.0579830217101067e+00 -2.7439773622801411e+00   2.2938493774533133e+00 -1.9661566092456972e+00 -2.6215421456609298e+00   2.4987801902176976e+00 -1.8740851426632728e+00 -2.4987801902176972e+00  -2.5870466670542185e+00 -1.6169041669088868e+00 -2.5870466670542185e+00  -2.3835182861244961e+00 -1.7025130615174973e+00 -2.7240208984279954e+00  -2.1466252583997982e+00 -1.7888543819998322e+00 -2.8621670111997313e+00  -1.8731716231633877e+00 -1.8731716231633877e+00 -2.9970745970614212e+00  -1.5614401167176530e+00 -1.9518001458970662e+00 -3.1228802334353070e+00  -1.2121830534626528e+00 -2.0203050891044216e+00 -3.2324881425670746e+00  -8.2956135578434020e-01 -2.0739033894608512e+00 -3.3182454231373608e+00  -4.2163702135578396e-01 -2.1081851067789197e+00 -3.3730961708462717e+00   0.0000000000000000e+00 -2.1199957600127197e+00 -3.3919932160203525e+00   4.2163702135578396e-01 -2.1081851067789197e+00 -3.3730961708462717e+00   8.2956135578434054e-01 -2.0739033894608512e+00 -3.3182454231373608e+00   1.2121830534626528e+00 -2.0203050891044216e+00 -3.2324881425670746e+00   1.5614401167176526e+00 -1.9518001458970662e+00 -3.1228802334353070e+00   1.8731716231633879e+00 -1.8731716231633877e+00 -2.9970745970614212e+00   2.1466252583997982e+00 -1.7888543819998322e+00 -2.8621670111997313e+00   2.3835182861244961e+00 -1.7025130615174973e+00 -2.7240208984279954e+00   2.5870466670542180e+00 -1.6169041669088868e+00 -2.5870466670542185e+00  -2.6666666666666670e+00 -1.3333333333333335e+00 -2.6666666666666670e+00  -2.4652625377117472e+00 -1.4087214501209984e+00 -2.8174429002419967e+00  -2.2283440581246228e+00 -1.4855627054164151e+00 -2.9711254108328298e+00  -1.9518001458970662e+00 -1.5614401167176530e+00 -3.1228802334353070e+00  -1.6329931618554516e+00 -1.6329931618554516e+00 -3.2659863237109046e+00  -1.2719974560076319e+00 -1.6959966080101760e+00 -3.3919932160203525e+00  -8.7287156094396934e-01 -1.7457431218879389e+00 -3.4914862437758782e+00  -4.4444444444444464e-01 -1.7777777777777783e+00 -3.5555555555555558e+00   0.0000000000000000e+00 -1.7888543819998324e+00 -3.5777087639996634e+00   4.4444444444444464e-01 -1.7777777777777783e+00 -3.5555555555555558e+00   8.7287156094396934e-01 -1.7457431218879389e+00 -3.4914862437758782e+00   1.2719974560076317e+00 -1.6959966080101760e+00 -3.3919932160203525e+00   1.6329931618554516e+00 -1.6329931618554516e+00 -3.2659863237109046e+00   1.9518001458970664e+00 -1.5614401167176530e+00 -3.1228802334353070e+00   2.2283440581246228e+00 -1.4855627054164151e+00 -2.9711254108328298e+00   2.4652625377117481e+00 -1.4087214501209984e+00 -2.8174429002419967e+00   2.6666666666666670e+00 -1.3333333333333335e+00 -2.6666666666666670e+00  -2.7339445046936359e+00 -1.0252291892601133e+00 -2.7339445046936355e+00  -2.5350008891905187e+00 -1.0864289525102224e+00 -2.8971438733605934e+00  -2.2987830845307631e+00 -1.1493915422653815e+00 -3.0650441127076844e+00  -2.0203050891044216e+00 -1.2121830534626528e+00 -3.2324881425670746e+00  -1.6959966080101760e+00 -1.2719974560076319e+00 -3.3919932160203525e+00  -1.3251783128981596e+00 -1.3251783128981596e+00 -3.5338088343950891e+00  -9.1168461167710391e-01 -1.3675269175156557e+00 -3.6467384467084147e+00  -4.6499055497527714e-01 -1.3949716649258312e+00 -3.7199244398022171e+00   0.0000000000000000e+00 -1.4044937663535664e+00 -3.7453167102761786e+00   4.6499055497527692e-01 -1.3949716649258312e+00 -3.7199244398022171e+00   9.1168461167710413e-01 -1.3675269175156557e+00 -3.6467384467084147e+00   1.3251783128981596e+00 -1.3251783128981596e+00 -3.5338088343950891e+00   1.6959966080101760e+00 -1.2719974560076319e+00 -3.3919932160203525e+00   2.0203050891044216e+00 -1.2121830534626528e+00 -3.2324881425670746e+00   2.2987830845307631e+00 -1.1493915422653815e+00 -3.0650441127076844e+00   2.5350008891905182e+00 -1.0864289525102224e+00 -2.8971438733605934e+00   2.7339445046936359e+00 -1.0252291892601133e+00 -2.7339445046936355e+00  -2.7852424952911656e+00 -6.9631062382279141e-01 -2.7852424952911656e+00  -2.5886009157177363e+00 -7.3960026163363901e-01 -2.9584010465345552e+00  -2.3533936216582085e+00 -7.8446454055273596e-01 -3.1378581622109447e+00  -2.0739033894608512e+00 -8.2956135578434020e-01 -3.3182454231373608e+00  -1.7457431218879389e+00 -8.7287156094396934e-01 -3.4914862437758782e+00  -1.3675269175156557e+00 -9.1168461167710391e-01 -3.6467384467084147e+00  -9.4280904158206269e-01 -9.4280904158206269e-01 -3.7712361663282539e+00  -4.8154341234307674e-01 -9.6308682468615348e-01 -3.8523472987446148e+00   0.0000000000000000e+00 -9.7014250014533199e-01 -3.8805700005813279e+00   4.8154341234307674e-01 -9.6308682468615348e-01 -3.8523472987446148e+00   9.4280904158206269e-01 -9.4280904158206269e-01 -3.7712361663282539e+00   1.3675269175156557e+00 -9.1168461167710391e-01 -3.6467384467084147e+00   1.7457431218879387e+00 -8.7287156094396934e-01 -3.4914862437758782e+00   2.0739033894608507e+00 -8.2956135578434020e-01 -3.3182454231373608e+00   2.3533936216582085e+00 -7.8446454055273596e-01 -3.1378581622109447e+00   2.5886009157177368e+00 -7.3960026163363901e-01 -2.9584010465345552e+00   2.7852424952911656e+00 -6.9631062382279141e-01 -2.7852424952911656e+00  -2.8174429002419967e+00 -3.5218036253024970e-01 -2.8174429002419967e+00  -2.6224402724287428e+00 -3.7463432463267765e-01 -2.9970745970614212e+00  -2.3880892565039744e+00 -3.9801487608399555e-01 -3.1841190086719653e+00  -2.1081851067789197e+00 -4.2163702135578396e-01 -3.3730961708462717e+00  -1.7777777777777783e+00 -4.4444444444444464e-01 -3.5555555555555558e+00  -1.3949716649258312e+00 -4.6499055497527714e-01 -3.7199244398022171e+00  -9.6308682468615348e-01 -4.8154341234307674e-01 -3.8523472987446148e+00  -4.9236596391733151e-01 -4.9236596391733151e-01 -3.9389277113386476e+00   0.0000000000000000e+00 -4.9613893835683115e-01 -3.9691115068546710e+00   4.9236596391733151e-01 -4.9236596391733151e-01 -3.9389277113386476e+00   9.6308682468615348e-01 -4.8154341234307674e-01 -3.8523472987446148e+00   1.3949716649258312e+00 -4.6499055497527714e-01 -3.7199244398022171e+00   1.7777777777777786e+00 -4.4444444444444464e-01 -3.5555555555555558e+00   2.1081851067789197e+00 -4.2163702135578396e-01 -3.3730961708462717e+00   2.3880892565039744e+00 -3.9801487608399555e-01 -3.1841190086719653e+00 
[...]
<PointData Scalars="scalars">
<DataArray type="Float64" Name="Solution Component 0 - E0" Format="ascii"> -5.8335733491770431e-05  -8.4356720831712736e-05  -6.6453151477871217e-05  -3.4799852303858854e-05   3.2975698874612019e-06   4.5365823003062737e-05   8.9976526280508614e-05   1.3567014218635303e-04   1.8050082597644143e-04   2.2178694757843181e-04   2.5685249103670231e-04   2.8460212363912770e-04   3.0559575779330172e-04   3.1797009576025508e-04   2.9855910038632891e-04   3.1306055612406736e-04   2.4705701456098975e-04  -2.2996231912639740e-04  -2.2308849441124738e-04  -1.8640361535281593e-04  -1.2557124589030648e-04  -5.0281836736877378e-05   3.3444233977457730e-05   1.2109345641077383e-04   2.0819358436907761e-04   2.8972052464428140e-04   3.5998377791127698e-04   4.1478665714052981e-04   4.5327643906481040e-04   4.7643613653941238e-04   4.8300824761706622e-04   4.6234473518519306e-04   8.2933342413163413e-04   4.1150400620627164e-04  -4.5699021703957772e-04  -4.2050707284726737e-04  -3.5068628599565664e-04  -2.5197127544105899e-04  -1.3107573242173397e-04   4.2819696350320652e-06   1.4593050096650814e-04   2.8498030446414899e-04   4.1170425644708247e-04   5.1593119482561947e-04   5.9175660833071884e-04   6.3949535259230075e-04   6.6270461266886103e-04   6.6428838899173321e-04   6.4377850815026689e-04   1.1986890805739392e-03   3.6214111933047200e-04  -7.1729403137903505e-04  -6.5888660999936094e-04  -5.5634311805347579e-04  -4.1519656354518366e-04  -2.4170405052892493e-04  -4.5387593773725098e-05   1.6123102248740556e-04   3.6317707771854613e-04   5.4388952999550808e-04   6.8678475700928139e-04   7.8436664670690839e-04   8.3973013679209058e-04   8.6118451063883685e-04   8.5716588131641959e-04   8.3407176011018620e-04   1.4396616784738969e-03   4.0233690711009677e-04  -9.9316694686581251e-04  -9.1831613614508931e-04  -7.8769133909643765e-04  -6.0515829592362345e-04  -3.7666142812439610e-04  -1.1363214152487495e-04   1.6622610302080391e-04   4.4006369817541861e-04   6.8198199464116838e-04   8.6677533018141148e-04   9.8589348544566484e-04   1.0470725382652202e-03   1.0649877370407777e-03   1.0538833910122810e-03   1.0249499179961702e-03   1.5743208988054092e-03   5.1396730256034629e-04  -1.2621962805051054e-03  -1.1746215833894672e-03  -1.0206664573770238e-03  -8.0107108276108400e-04  -5.2020599493693941e-04  -1.9070118390396339e-04   1.6467999614154906e-04   5.1410730245571778e-04   8.1998597543523353e-04   1.0467337476413939e-03   1.1857810735451490e-03   1.2509514830948310e-03   1.2639398437488977e-03   1.2444176513272409e-03   1.2069609477593772e-03   1.6190720691108759e-03   6.6565375760503556e-04  -1.4977742055837318e-03  -1.3989023515722401e-03  -1.2250408950172736e-03  -9.7382207082869973e-04  -6.4742713341987964e-04  -2.5866581234577435e-04   1.6568567499582578e-04   5.8535570578736092e-04   9.4989428573463144e-04   1.2137076273570949e-03   1.3695574263937371e-03   1.4374111107944836e-03   1.4452718725102541e-03   1.4172665432193039e-03   1.3701684117391182e-03   1.5860266308012384e-03   8.2406066238527396e-04  -1.6721958486475156e-03  -1.5607690055394598e-03  -1.3681929515937596e-03  -1.0904506799650990e-03  -7.2833471742692101e-04  -2.9444472744797408e-04   1.8200287417056483e-04   6.5414315993171418e-04   1.0608679630756622e-03   1.3511840116449774e-03   1.5198232467796106e-03   1.5905150826588188e-03   1.5952464221263853e-03   1.5610448529717702e-03   1.5058398328403394e-03   1.4895410073434371e-03   9.6105300430094015e-04  -1.7624017248263390e-03  -1.6348506336872507e-03  -1.4225275942138492e-03  -1.1223554151518099e-03  -7.3594705546271367e-04  -2.7680331277729620e-04   2.2420024120645512e-04   7.1731873014464114e-04   1.1395621397360849e-03   1.4420970692563730e-03   1.6199109155167219e-03   1.6958290060443755e-03   1.7021780859111852e-03   1.6668440335042116e-03   1.6081211215751116e-03   1.3529819564672102e-03   1.0583628087716362e-03  -1.7584476880646580e-03  -1.6106877120759958e-03  -1.3780385917736323e-03  -1.0611976386275116e-03  -6.6494252917620445e-04  -2.0474054021279065e-04   2.8850034896904671e-04   7.6799371535361208e-04   1.1782046906540673e-03   1.4779375342266125e-03   1.6614119846344987e-03   1.7461701686207129e-03   1.7605614299103997e-03   1.7308589890066644e-03   1.6750690706509920e-03   1.2050855932159857e-03   1.1072011319416299e-03  -1.6718750283313904e-03  -1.5032008037660070e-03  -1.2549625867513295e-03  -9.3240237284071277e-04  -5.4305957972077662e-04  -1.0311656599796225e-04   3.5875266187062357e-04   8.0215214162893459e-04   1.1823459613064301e-03   1.4673322647221058e-03   1.6510402590036227e-03   1.7467729062163914e-03   1.7741464869618538e-03   1.7558241288903945e-03   1.7090321021726719e-03   1.0686682689792747e-03   1.1074748495431023e-03  -1.5287711936016570e-03  -1.3430710039622057e-03  -1.0895494719399910e-03  -7.7466496696016981e-04  -4.0583192522827697e-04   1.5770786285148678e-06   4.2175526208425231e-04   8.2081665366105609e-04   1.1640563789853686e-03   1.4278737267657817e-03   1.6071912563455299e-03   1.7114519319522785e-03   1.7535284429018192e-03   1.7494022065716564e-03   1.7156553475136775e-03   9.5859665019399840e-04   1.0720828953488110e-03  -1.3540656486276848e-03  -1.1598586570975350e-03  -9.1412283858342271e-04  -6.1740180229923709e-04  -2.7563755696854140e-04   9.5943034759020341e-05   4.7343648402899303e-04   8.2835237977101886e-04   1.1342506298745263e-03   1.3745336873872958e-03   1.5458477292349365e-03   1.6548460568890971e-03   1.7126192740762156e-03   1.7220443012512612e-03   1.7023432778866089e-03   8.8749094766350095e-04   1.0265420313056075e-03  -1.1602389125051648e-03  -9.7839345928619386e-04  -7.5063951231965414e-04  -4.7494086623293817e-04  -1.5967478908060479e-04   1.7809928584909551e-04   5.1577730121468701e-04   8.2967437442222648e-04   1.1001858242293805e-03   1.3163842902672498e-03   1.4768600913234028e-03   1.5869169996401379e-03   1.6546595923925852e-03   1.6897665943266570e-03   1.6775242415825128e-03   8.7194306565012078e-04   1.0037377929772405e-03  -9.6775024821399067e-04  -8.2257987054552308e-04  -6.1059881088649961e-04  -3.4819813063416009e-04  -5.3261541705446102e-05   2.5443387576659616e-04   5.5478471418453921e-04   8.2973832326172794e-04   1.0659623459671817e-03   1.2571269738738294e-03   1.4036041432176182e-03   1.5103857482402809e-03   1.5845954661412940e-03   1.6335417541079762e-03   1.6641020254471155e-03   9.4169492149106734e-04   1.0449567419137766e-03  -8.0870279343596939e-04  -3.2805764357847955e-04   4.4443734847860697e-05   2.4684699406546569e-04   3.7845046229245932e-04   5.0796252963190630e-04   6.6576041675565456e-04   8.5039528883996593e-04   1.0415130515699159e-03   1.2145127380158490e-03   1.3535669822227724e-03   1.4598145152521814e-03   1.5532689388820416e-03   1.6695519617097171e-03   1.8348874792070285e-03   1.5295087647583007e-03   1.5253037697999464e-03  -8.0853937412474024e-04  -3.2789289948196291e-04   4.4604414890903380e-05   2.4699653898467913e-04   3.7858051431682307e-04   5.0806445964158024e-04   6.6582693076359684e-04   8.5042220339485476e-04   1.0415004811875151e-03   1.2144650440262189e-03   1.3534914666620433e-03   1.4597195315797905e-03   1.5531622594406394e-03   1.6694398629050720e-03   1.8347745195734164e-03   1.5293979839094765e-03   1.5293432600246085e-03  -5.6017304747849397e-04   3.5498315871472768e-06   1.6423961726321574e-05   2.6511733518755478e-05   3.6346389223421960e-05   4.7606366053487805e-05   6.1720509109278469e-05   7.9689894706644305e-05   1.0161061130544609e-04   1.2604332835011473e-04   1.5005437390508869e-04   1.7186607626631193e-04   1.9190479435359965e-04   2.1274855488821219e-04   2.4304378862694735e-04   3.0009036673328635e-04   4.0222774720479089e-05  -7.6058894304265252e-04  -2.6537638317014470e-04  -2.3181776044220643e-04  -1.7034903228178131e-04  -9.6509387443612289e-05  -1.4736900009383293e-05   7.2503870301370921e-05   1.6238005970595432e-04   2.5065860567757451e-04   3.3116874197914708e-04   3.9953688534003710e-04   4.5654378871009345e-04   5.0414131086432142e-04   5.2561852480868061e-04   1.4782449423870400e-03   2.6703774804059564e-04   3.0651287294739752e-04  -9.7072383061108983e-04  -6.9072629254703717e-04  -5.7758205843639015e-04  -4.4628198208429722e-04  -2.8884861842457682e-04  -1.1217101301617808e-04   7.3111704068907070e-05   2.5493298730543996e-04   4.1998560998351666e-04   5.5471268780253147e-04   6.5402851444676109e-04   7.2146819934463993e-04   7.6378698479895508e-04   7.9255139459161368e-04   2.0391800539718077e-03   4.7132331010055835e-04   4.6063846182604396e-04  -1.2039229804561924e-03  -1.1944562518269840e-03  -1.0271736515351888e-03  -8.1947570148976044e-04  -5.6154013689687992e-04  -2.6527421192273687e-04   4.7398020387978506e-05   3.4925024529723392e-04   6.1158634787068658e-04   8.0961552758683031e-04   9.3978026808003504e-04   1.0137758719942628e-03   1.0493318295427634e-03   1.0768236967079339e-03   2.3179048277177580e-03   6.9470275756076754e-04   6.3445238229374872e-04  -1.4530980727119876e-03  -1.7489025461920732e-03  -1.5451975836840430e-03  -1.2678934722474566e-03  -9.0587978262875006e-04  -4.7365051096043948e-04  -8.3873489685647650e-06   4.4003828967031320e-04   8.1883032616881591e-04   1.0872264420946501e-03   1.2472658040024033e-03   1.3247508033418320e-03   1.3510482350809116e-03   1.3661888444897441e-03   2.4061019535891841e-03   9.2476043044436413e-04   8.2183581566322070e-04  -1.7015549423836632e-03  -2.3081401872522811e-03  -2.0789403864871561e-03  -1.7438661521596527e-03  -1.2846292072661693e-03  -7.1545015160423878e-04  -8.6810877700970054e-05   5.2401399139050087e-04   1.0304590840292665e-03   1.3713861348075066e-03   1.5589511055479521e-03   1.6370652363645001e-03   1.6510405608652205e-03   1.6452020615042296e-03   2.3676615720226550e-03   1.1516409850249594e-03   1.0168375838250014e-03  -1.9267830720010393e-03  -2.8110772296689917e-03  -2.5602228419545413e-03  -2.1769935314413669e-03  -1.6346934810913222e-03  -9.4420300795085592e-04  -1.6460500311050042e-04   6.0228272710896060e-04   1.2300654519196703e-03   1.6373109834536348e-03   1.8486434664358119e-03   1.9255957403730201e-03   1.9259470700171604e-03   1.8957582456684381e-03   2.2408649621720525e-03   1.3646812635642975e-03   1.2114638680528283e-03  -2.1041922685644757e-03  -3.1891800728196967e-03  -2.9110134903594332e-03  -2.4835551514802564e-03  -1.8756727524302415e-03  -1.0947751242689875e-03  -2.0316279949435961e-04   6.7937624276259690e-04   1.3947487219778461e-03   1.8517861183453023e-03   2.0830526059877489e-03   2.1603850159980344e-03   2.1505024146955122e-03   2.1002451945867349e-03   2.0530027110187716e-03   1.5525567684017616e-03   1.3955926012399632e-03  -2.2123215578559261e-03  -3.3794874936173068e-03  -3.0584548473573730e-03  -2.5827262590852550e-03  -1.9250416196034082e-03  -1.0959693323070905e-03  -1.6122326546050302e-04   7.5488178326308926e-04   1.4968546141743064e-03   1.9794151212589413e-03   2.2286655960571020e-03   2.3133741446419802e-03   2.3031064164309896e-03   2.2451286899841951e-03   1.8344240191119875e-03   1.7047417877162796e-03   1.5580869599230273e-03  -2.2387891024519429e-03  -3.3474977643533745e-03  -2.9687622818973330e-03  -2.4457153315254176e-03  -1.7634273344276159e-03  -9.4088962361237385e-04  -4.3169553312138857e-05   8.2052155320813105e-04   1.5254994891410664e-03   2.0033860331639957e-03   2.2679336331835219e-03   2.3707400772795002e-03   2.3745645586420792e-03   2.3255762826585214e-03   1.6186349806298142e-03   1.8140291819467632e-03   1.6890311825401745e-03  -2.1852823610508322e-03  -3.1268622671164000e-03  -2.6953102897413761e-03  -2.1476869483936234e-03  -1.4784612739428191e-03  -7.0929766008538642e-04   1.0223304496497361e-04   8.6901657312814912e-04   1.5003490893547085e-03   1.9474352349503877e-03   2.2175419156925873e-03   2.3456096813386537e-03   2.3742688600400927e-03   2.3479763388143606e-03   1.4280821345610019e-03   1.8784472426842981e-03   1.7823245300955407e-03  -2.0682731700549669e-03  -2.7927309771056770e-03  -2.3330453998651529e-03  -1.7963113366158859e-03  -1.1715248747917613e-03  -4.7766670703132343e-04   2.3526968582521609e-04   8.9871640030161090e-04   1.4487943190244091e-03   1.8535001883096885e-03   2.1174334640950187e-03   2.2653990388295862e-03   2.3226809292203462e-03   2.3261083574808439e-03   1.2773097009634131e-03   1.9007646529532491e-03   1.8369315111690287e-03  -1.9129078564660341e-03  -2.4089342622263870e-03  -1.9662133673634982e-03  -1.4686312106929485e-03  -8.9785706192476399e-04  -2.7753472280972854e-04   3.4485026921727917e-04   9.1498615929985273e-04   1.3894429643112874e-03   1.7495050898191046e-03   1.9998926716908029e-03   2.1581438784078278e-03   2.2443611734737274e-03   2.2775266083533176e-03   1.1933738372517100e-03   1.8867864756924476e-03   1.8563692649864380e-03  -1.7352821167287967e-03  -1.9825392596913385e-03  -1.6639626480435777e-03  -1.2080643941466940e-03  -6.7089983855289268e-04  -1.0594283483367709e-04   4.3924229006559980e-04   9.2641352849110869e-04   1.3309474935114293e-03   1.6452722688482775e-03   1.8757531370621138e-03   2.0364931203484655e-03   2.1439012217595640e-03   2.2275305861644539e-03   1.2511180574408740e-03   1.8434608313265136e-03   1.8473501770381782e-03  -1.4498658389257087e-03  -1.2589912218118355e-03  -3.0418322244872738e-04   8.4951756135187226e-05   2.5907883646432428e-04   4.3130414897020290e-04   6.7201808990958491e-04   9.6709459868734248e-04   1.2680229832031909e-03   1.5260607064783507e-03   1.7146722342308001e-03   1.8413068455070854e-03   1.9496626147915488e-03   2.0821124714212810e-03   1.7469035250501745e-03   1.7743511118623715e-03   1.8187531254080535e-03  -5.2303999073864682e-04  -9.4058641786909218e-04  -6.5710482765663164e-04  -3.4891186514160672e-04  -3.3339578598967797e-05   2.7581533485851012e-04   5.6643872042706159e-04   8.2841794247825377e-04   1.0544415282224364e-03   1.2407747583739661e-03   1.3866031555297116e-03   1.4929943917441134e-03   1.5620632975396937e-03   1.5961534659207242e-03   1.5973360809415386e-03   1.5714470006880144e-03   1.7814763330326268e-03  -5.2288017600593800e-04  -9.4039555789190879e-04  -6.5691754553612563e-04  -3.4873534524656872e-04  -3.3182590799827986e-05   2.7594312424059368e-04   5.6652800158428431e-04   8.2846139817257624e-04   1.0544353798961480e-03   1.2407196302949587e-03   1.3865038884942826e-03   1.4928589057008994e-03   1.5619009913768606e-03   1.5959737134787863e-03   1.5971471771310363e-03   1.5712556375623147e-03   1.5712621215786923e-03  -3.1704916952879944e-04   1.1921081647879394e-04   1.3093305742297768e-04   1.1178765459625266e-04   8.1047430115787982e-05   4.6269828756379238e-05   1.2699184930703409e-05  -1.5136077081761511e-05  -3.3629233484588488e-05  -4.0941225980878121e-05  -3.9551329696967658e-05  -3.2793898733730431e-05  -2.2120873996617359e-05  -9.9505793392160296e-07   7.2229675978362901e-05   1.7601497230470956e-04   1.6546773597070179e-05  -5.2391291360891939e-04  -1.1726835968693817e-03   4.6687642105575994e-05   5.1630362635660153e-05   5.5218694148937819e-05   5.9947478443883457e-05   7.0979669668999384e-05   9.3065498844673079e-05   1.2823502191942164e-04   1.7255145335617097e-04   2.1656730984768042e-04   2.5868867482343436e-04   3.0571659711261135e-04   3.7856257439857096e-04   5.0778274428184083e-04   1.4701393161153288e-04   1.6374986937961938e-04  -7.7007382585292914e-04  -1.5745650781981337e-03  -5.0692385856037031e-04  -4.1773219843578926e-04  -2.8104285135097009e-04  -1.2219908302178967e-04   4.9751975928917058e-05   2.2909117248691741e-04   4.0591342965738138e-04   5.6117925099181335e-04   6.9023475483510563e-04   8.0151813591454403e-04   8.7084842226407627e-04   2.3686453572339741e-03   4.7543458568990776e-04   3.5929372038214001e-04   3.2093241283975892e-04  -1.0505961950192340e-03  -2.0162364654460877e-03  -1.4718505696185203e-03  -1.2304215697679030e-03  -8.8204008179744984e-04  -4.7396283844368988e-04  -4.1436110294856799e-05   3.7426085886408923e-04   7.3020978583783383e-04   9.8693690674568949e-04   1.1554568706984977e-03   1.2652543713558462e-03   1.3534864469359476e-03   3.2384153059483410e-03   8.5372769495190026e-04   6.1011699266315085e-04   5.1757548163038254e-04  -1.3569762215277794e-03  -2.5062600318112279e-03  -2.6382233313865617e-03  -2.2681623952345723e-03  -1.7232595634283730e-03  -1.0128381657557291e-03  -2.3092339616939195e-04   5.0908298714182933e-04   1.0987787122782272e-03   1.4698054706968303e-03   1.6709306801483840e-03   1.7726998087578376e-03   1.8585009969732482e-03   3.5818291022168859e-03   1.2514307535919922e-03   8.6776214620663838e-04   7.3075996816851540e-04  -1.6693499099215425e-03  -3.0144548571349257e-03  -3.8847138044879647e-03  -3.4342508292317846e-03  -2.7097900989998570e-03  -1.6954535550038016e-03  -5.1451150884445555e-04   6.2159495406509109e-04   1.4888060110869509e-03   1.9810824518884133e-03   2.2092572942496291e-03   2.2958107636520250e-03   2.3494988535001128e-03   3.5829116236759471e-03   1.6404689273398516e-03   1.1190507232001136e-03   9.5256299021143087e-04  -1.9585868452996142e-03  -3.4881663360239591e-03  -5.0460920818569174e-03  -4.5344662809275772e-03  -3.6605594306073352e-03  -2.3817410278861007e-03  -8.2682603526900962e-04   7.1577267778206088e-04   1.8623103166837227e-03   2.4704637267739370e-03   2.7213816705456526e-03   2.7857183750405238e-03   2.7881121726001708e-03   3.3743420956467117e-03   1.9971929432443074e-03   1.3497177324065495e-03   1.1717942817509020e-03  -2.1912315065834385e-03  -3.8625882167179736e-03  -5.9157688440822460e-03  -5.3305542960136497e-03  -4.3308697968286467e-03  -2.8556566650616592e-03  -1.0268171623532443e-03   8.1319237871588798e-04   2.1596941671819460e-03   2.8632672151814543e-03   3.1384590949474320e-03   3.1828180392501331e-03   3.1361141558152342e-03   3.0403340864584155e-03   2.2984077246006431e-03   1.5458930250698332e-03   1.3749053967337381e-03  -2.3370280236919921e-03  -4.0759182358468945e-03  -6.2811585908384322e-03  -5.5664787754100180e-03  -4.4356075347889252e-03  -2.8515882146357926e-03  -9.5208102818445631e-04   9.1737126446551724e-04   2.3024954111461630e-03   3.0700820090112093e-03   3.3817083812789487e-03   3.4262164798937508e-03   3.3586043788356810e-03   2.6470480407991721e-03   2.5233827410968196e-03   1.6968050896066164e-03   1.5480860501633767e-03  -2.3781655522344038e-03  -4.0907481857943902e-03  -6.0334440505219154e-03  -5.1589274779083646e-03  -3.9416623293596570e-03  -2.3907415111171166e-03  -6.4654300807118171e-04   1.0144340858308047e-03   2.2770705961255551e-03   3.0412579131239717e-03   3.4002737361832533e-03   3.4830565044707803e-03   3.4411282197155651e-03   2.2766681089444289e-03   2.6603422486103099e-03   1.7979451165696463e-03   1.6807184596326988e-03  -2.3181668628195688e-03  -3.9191553158059635e-03  -5.3505648095490549e-03  -4.3773212559024728e-03  -3.1831257881062792e-03  -1.7803505553519075e-03  -2.8711818476524656e-04   1.0926076139815433e-03   2.1585787180428665e-03   2.8515623097916110e-03   3.2348598292830395e-03   3.3910088400926309e-03   3.4094312344117752e-03   1.9876704885018644e-03   2.7116132934218648e-03   1.8518285047323636e-03   1.7686999553735167e-03  -2.1803727182277233e-03  -3.6188915091337746e-03  -4.4943378986189442e-03  -3.5476308789461372e-03  -2.4616711956811713e-03  -1.2368474030857496e-03   1.6041981324984602e-05   1.1415230516652190e-03   2.0179589782287673e-03   2.6203305096314895e-03   2.9935826355514863e-03   3.2062056305086615e-03   3.3068347017070994e-03   1.8243866226944662e-03   2.6891862625516676e-03   1.8660080150799752e-03   1.8148254670637858e-03  -1.9948122146917859e-03  -3.2494608739843511e-03  -3.6177298077399080e-03  -2.9032772828769199e-03  -1.9112713955747873e-03  -8.1056957630115895e-04   2.5290781287988181e-04   1.1710958208225673e-03   1.8866498382355812e-03   2.4014432656200690e-03   2.7523869274307233e-03   2.9900457100796550e-03   3.1807026733640569e-03   1.8831225476853945e