<VTKFile type="UnstructuredGrid" version="0.1" byte_order="LittleEndian">
<UnstructuredGrid>
<Piece NumberOfPoints="125" NumberOfCells="384">
<Points>
<DataArray type="Float64" NumberOfComponents="3" Format="ascii">                        0                        0                        0                      0.25                        0                        0                       0.5                        0                        0                      0.75                        0                        0                         1                        0                        0                         0                     0.25                        0                      0.25                     0.25                        0                       0.5                     0.25                        0                      0.75                     0.25                        0                         1                     0.25                        0                         0                      0.5                        0                      0.25                      0.5                        0                       0.5                      0.5                        0                      0.75                      0.5                        0                         1                      0.5                        0                         0                     0.75                        0                      0.25                     0.75                        0                       0.5                     0.75                        0                      0.75                     0.75                        0                         1                     0.75                        0                         0                        1                        0                      0.25                        1                        0                       0.5                        1                        0                      0.75                        1                        0                         1                        1                        0                         0                        0                     0.25                      0.25                        0                     0.25                       0.5                        0                     0.25                      0.75                        0                     0.25                         1                        0                     0.25                         0                     0.25                     0.25                      0.25                     0.25                     0.25                       0.5                     0.25                     0.25                      0.75                     0.25                     0.25                         1                     0.25                     0.25                         0                      0.5                     0.25                      0.25                      0.5                     0.25                       0.5                      0.5                     0.25                      0.75                      0.5                     0.25                         1                      0.5                     0.25                         0                     0.75                     0.25                      0.25                     0.75                     0.25                       0.5                     0.75                     0.25                      0.75                     0.75                     0.25                         1                     0.75                     0.25                         0                        1                     0.25                      0.25                        1                     0.25                       0.5                        1                     0.25                      0.75                        1                     0.25                         1                        1                     0.25                         0                        0                      0.5                      0.25                        0                      0.5                       0.5                        0                      0.5                      0.75                        0                      0.5                         1                        0                      0.5                         0                     0.25                      0.5                      0.25                     0.25                      0.5                       0.5                     0.25                      0.5                      0.75                     0.25                      0.5                         1                     0.25                      0.5                         0                      0.5                      0.5                      0.25                      0.5                      0.5                       0.5                      0.5                      0.5                      0.75                      0.5                      0.5                         1                      0.5                      0.5                         0                     0.75                      0.5                      0.25                     0.75                      0.5                       0.5                     0.75                      0.5                      0.75                     0.75                      0.5                         1                     0.75                      0.5                         0                        1                      0.5                      0.25                        1                      0.5                       0.5                        1                      0.5                      0.75                        1                      0.5                         1                        1                      0.5                         0                        0                     0.75                      0.25                        0                     0.75                       0.5                        0                     0.75                      0.75                        0                     0.75                         1                        0                     0.75                         0                     0.25                     0.75                      0.25                     0.25                     0.75                       0.5                     0.25                     0.75                      0.75                     0.25                     0.75                         1                     0.25                     0.75                         0                      0.5                     0.75                      0.25                      0.5                     0.75                       0.5                      0.5                     0.75                      0.75                      0.5                     0.75                         1                      0.5                     0.75                         0                     0.75                     0.75                      0.25                     0.75                     0.75                       0.5                     0.75                     0.75                      0.75                     0.75                     0.75                         1                     0.75                     0.75                         0                        1                     0.75                      0.25                        1                     0.75                       0.5                        1                     0.75                      0.75                        1                     0.75                         1                        1                     0.75                         0                        0                        1                      0.25                        0                        1                       0.5                        0                        1                      0.75                        0                        1                         1                        0                        1                         0                     0.25                        1                      0.25                     0.25                        1                       0.5                     0.25                        1                      0.75                     0.25                        1                         1                     0.25                        1                         0                      0.5                        1                      0.25                      0.5                        1                       0.5                      0.5                        1                      0.75                      0.5                        1                         1                      0.5                        1                         0                     0.75                        1                      0.25                     0.75                        1                       0.5                     0.75                        1                      0.75                     0.75                        1                         1                     0.75                        1                         0                        1                        1                      0.25                        1                        1                       0.5                        1                        1                      0.75                        1                        1                         1                        1                        1 </DataArray>
</Points>
<PointData Scalars="scalars">
<DataArray type="Int64" Name="v_bdry" Format="ascii"> 1  1  1  1  1  1  1  1  1  1  1  1  1  1  1  1  1  1  1  1  1  1  1  1  1  1  1  1  1  1  1  0  0  0  1  1  0  0  0  1  1  0  0  0  1  1  1  1  1  1  1  1  1  1  1  1  0  0  0  1  1  0  0  0  1  1  0  0  0  1  1  1  1  1  1  1  1  1  1  1  1  0  0  0  1  1  0  0  0  1  1  0  0  0  1  1  1  1  1  1  1  1  1  1  1  1  1  1  1  1  1  1  1  1  1  1  1  1  1  1  1  1  1  1  1 </DataArray>
</PointData>
<Cells>
<DataArray type="Int64" Name="offsets" Format="ascii"> 4  8  12  16  20  24  28  32  36  40  44  48  52  56  60  64  68  72  76  80  84  88  92  96  100  104  108  112  116  120  124  128  132  136  140  144  148  152  156  160  164  168  172  176  180  184  188  192  196  200  204  208  212  216  220  224  228  232  236  240  244  248  252  256  260  264  268  272  276  280  284  288  292  296  300  304  308  312  316  320  324  328  332  336  340  344  348  352  356  360  364  368  372  376  380  384  388  392  396  400  404  408  412  416  420  424  428  432  436  440  444  448  452  456  460  464  468  472  476  480  484  488  492  496  500  504  508  512  516  520  524  528  532  536  540  544  548  552  556  560  564  568  572  576  580  584  588  592  596  600  604  608  612  616  620  624  628  632  636  640  644  648  652  656  660  664  668  672  676  680  684  688  692  696  700  704  708  712  716  720  724  728  732  736  740  744  748  752  756  760  764  768  772  776  780  784  788  792  796  800  804  808  812  816  820  824  828  832  836  840  844  848  852  856  860  864  868  872  876  880  884  888  892  896  900  904  908  912  916  920  924  928  932  936  940  944  948  952  956  960  964  968  972  976  980  984  988  992  996  1000  1004  1008  1012  1016  1020  1024  1028  1032  1036  1040  1044  1048  1052  1056  1060  1064  1068  1072  1076  1080  1084  1088  1092  1096  1100  1104  1108  1112  1116  1120  1124  1128  1132  1136  1140  1144  1148  1152  1156  1160  1164  1168  1172  1176  1180  1184  1188  1192  1196  1200  1204  1208  1212  1216  1220  1224  1228  1232  1236  1240  1244  1248  1252  1256  1260  1264  1268  1272  1276  1280  1284  1288  1292  1296  1300  1304  1308  1312  1316  1320  1324  1328  1332  1336  1340  1344  1348  1352  1356  1360  1364  1368  1372  1376  1380  1384  1388  1392  1396  1400  1404  1408  1412  1416  1420  1424  1428  1432  1436  1440  1444  1448  1452  1456  1460  1464  1468  1472  1476  1480  1484  1488  1492  1496  1500  1504  1508  1512  1516  1520  1524  1528  1532  1536 </DataArray>
<DataArray type="Int64" Name="connectivity" Format="ascii">
 0  26  25  31  0  1  26  31  0  6  1  31  0  25  30  31  0  30  5  31  0  5  6  31  1  27  26  32  1  2  27  32  1  7  2  32  1  26  31  32  1  31  6  32  1  6  7  32  2  28  27  33  2  3  28  33  2  8  3  33  2  27  32  33  2  32  7  33  2  7  8  33  3  29  28  34  3  4  29  34  3  9  4  34  3  28  33  34  3  33  8  34  3  8  9  34  5  31  30  36  5  6  31  36  5  11  6  36  5  30  35  36  5  35  10  36  5  10  11  36  6  32  31  37  6  7  32  37  6  12  7  37  6  31  36  37  6  36  11  37  6  11  12  37  7  33  32  38  7  8  33  38  7  13  8  38  7  32  37  38  7  37  12  38  7  12  13  38  8  34  33  39  8  9  34  39  8  14  9  39  8  33  38  39  8  38  13  39  8  13  14  39  10  36  35  41  10  11  36  41  10  16  11  41  10  35  40  41  10  40  15  41  10  15  16  41  11  37  36  42  11  12  37  42  11  17  12  42  11  36  41  42  11  41  16  42  11  16  17  42  12  38  37  43  12  13  38  43  12  18  13  43  12  37  42  43  12  42  17  43  12  17  18  43  13  39  38  44  13  14  39  44  13  19  14  44  13  38  43  44  13  43  18  44  13  18  19  44  15  41  40  46  15  16  41  46  15  21  16  46  15  40  45  46  15  45  20  46  15  20  21  46  16  42  41  47  16  17  42  47  16  22  17  47  16  41  46  47  16  46  21  47  16  21  22  47  17  43  42  48  17  18  43  48  17  23  18  48  17  42  47  48  17  47  22  48  17  22  23  48  18  44  43  49  18  19  44  49  18  24  19  49  18  43  48  49  18  48  23  49  18  23  24  49  25  51  50  56  25  26  51  56  25  31  26  56  25  50  55  56  25  55  30  56  25  30  31  56  26  52  51  57  26  27  52  57  26  32  27  57  26  51  56  57  26  56  31  57  26  31  32  57  27  53  52  58  27  28  53  58  27  33  28  58  27  52  57  58  27  57  32  58  27  32  33  58  28  54  53  59  28  29  54  59  28  34  29  59  28  53  58  59  28  58  33  59  28  33  34  59  30  56  55  61  30  31  56  61  30  36  31  61  30  55  60  61  30  60  35  61  30  35  36  61  31  57  56  62  31  32  57  62  31  37  32  62  31  56  61  62  31  61  36  62  31  36  37  62  32  58  57  63  32  33  58  63  32  38  33  63  32  57  62  63  32  62  37  63  32  37  38  63  33  59  58  64  33  34  59  64  33  39  34  64  33  58  63  64  33  63  38  64  33  38  39  64  35  61  60  66  35  36  61  66  35  41  36  66  35  60  65  66  35  65  40  66  35  40  41  66  36  62  61  67  36  37  62  67  36  42  37  67  36  61  66  67  36  66  41  67  36  41  42  67  37  63  62  68  37  38  63  68  37  43  38  68  37  62  67  68  37  67  42  68  37  42  43  68  38  64  63  69  38  39  64  69  38  44  39  69  38  63  68  69  38  68  43  69  38  43  44  69  40  66  65  71  40  41  66  71  40  46  41  71  40  65  70  71  40  70  45  71  40  45  46  71  41  67  66  72  41  42  67  72  41  47  42  72  41  66  71  72  41  71  46  72  41  46  47  72  42  68  67  73  42  43  68  73  42  48  43  73  42  67  72  73  42  72  47  73  42  47  48  73  43  69  68  74  43  44  69  74  43  49  44  74  43  68  73  74  43  73  48  74  43  48  49  74  50  76  75  81  50  51  76  81  50  56  51  81  50  75  80  81  50  80  55  81  50  55  56  81  51  77  76  82  51  52  77  82  51  57  52  82  51  76  81  82  51  81  56  82  51  56  57  82  52  78  77  83  52  53  78  83  52  58  53  83  52  77  82  83  52  82  57  83  52  57  58  83  53  79  78  84  53  54  79  84  53  59  54  84  53  78  83  84  53  83  58  84  53  58  59  84  55  81  80  86  55  56  81  86  55  61  56  86  55  80  85  86  55  85  60  86  55  60  61  86  56  82  81  87  56  57  82  87  56  62  57  87  56  81  86  87  56  86  61  87  56  61  62  87  57  83  82  88  57  58  83  88  57  63  58  88  57  82  87  88  57  87  62  88  57  62  63  88  58  84  83  89  58  59  84  89  58  64  59  89  58  83  88  89  58  88  63  89  58  63  64  89  60  86  85  91  60  61  86  91  60  66  61  91  60  85  90  91  60  90  65  91  60  65  66  91  61  87  86  92  61  62  87  92  61  67  62  92  61  86  91  92  61  91  66  92  61  66  67  92  62  88  87  93  62  63  88  93  62  68  63  93  62  87  92  93  62  92  67  93  62  67  68  93  63  89  88  94  63  64  89  94  63  69  64  94  63  88  93  94  63  93  68  94  63  68  69  94  65  91  90  96  65  66  91  96  65  71  66  96  65  90  95  96  65  95  70  96  65  70  71  96  66  92  91  97  66  67  92  97  66  72  67  97  66  91  96  97  66  96  71  97  66  71  72  97  67  93  92  98  67  68  93  98  67  73  68  98  67  92  97  98  67  97  72  98  67  72  73  98  68  94  93  99  68  69  94  99  68  74  69  99  68  93  98  99  68  98  73  99  68  73  74  99  75  101  100  106  75  76  101  106  75  81  76  106  75  100  105  106  75  105  80  106  75  80  81  106  76  102  101  107  76  77  102  107  76  82  77  107  76  101  106  107  76  106  81  107  76  81  82  107  77  103  102  108  77  78  103  108  77  83  78  108  77  102  107  108  77  107  82  108  77  82  83  108  78  104  103  109  78  79  104  109  78  84  79  109  78  103  108  109  78  108  83  109  78  83  84  109  80  106  105  111  80  81  106  111  80  86  81  111  80  105  110  111  80  110  85  111  80  85  86  111  81  107  106  112  81  82  107  112  81  87  82  112  81  106  111  112  81  111  86  112  81  86  87  112  82  108  107  113  82  83  108  113  82  88  83  113  82  107  112  113  82  112  87  113  82  87  88  113  83  109  108  114  83  84  109  114  83  89  84  114  83  108  113  114  83  113  88  114  83  88  89  114  85  111  110  116  85  86  111  116  85  91  86  116  85  110  115  116  85  115  90  116  85  90  91  116  86  112  111  117  86  87  112  117  86  92  87  117  86  111  116  117  86  116  91  117  86  91  92  117  87  113  112  118  87  88  113  118  87  93  88  118  87  112  117  118  87  117  92  118  87  92  93  118  88  114  113  119  88  89  114  119  88  94  89  119  88  113  118  119  88  118  93  119  88  93  94  119  90  116  115  121  90  91  116  121  90  96  91  121  90  115  120  121  90  120  95  121  90  95  96  121  91  117  116  122  91  92  117  122  91  97  92  122  91  116  121  122  91  121  96  122  91  96  97  122  92  118  117  123  92  93  118  123  92  98  93  123  92  117  122  123  92  122  97  123  92  97  98  123  93  119  118  124  93  94  119  124  93  99  94  124  93  118  123  124  93  123  98  124  93  98  99  124 </DataArray>
<DataArray type="Int64" Name="types" Format="ascii"> 10  10  10  10  10  10  10  10  10  10  10  10  10  10  10  10  10  10  10  10  10  10  10  10  10  10  10  10  10  10  10  10  10  10  10  10  10  10  10  10  10  10  10  10  10  10  10  10  10  10  10  10  10  10  10  10  10  10  10  10  10  10  10  10  10  10  10  10  10  10  10  10  10  10  10  10  10  10  10  10  10  10  10  10  10  10  10  10  10  10  10  10  10  10  10  10  10  10  10  10  10  10  10  10  10  10  10  10  10  10  10  10  10  10  10  10  10  10  10  10  10  10  10  10  10  10  10  10  10  10  10  10  10  10  10  10  10  10  10  10  10  10  10  10  10  10  10  10  10  10  10  10  10  10  10  10  10  10  10  10  10  10  10  10  10  10  10  10  10  10  10  10  10  10  10  10  10  10  10  10  10  10  10  10  10  10  10  10  10  10  10  10  10  10  10  10  10  10  10  10  10  10  10  10  10  10  10  10  10  10  10  10  10  10  10  10  10  10  10  10  10  10  10  10  10  10  10  10  10  10  10  10  10  10  10  10  10  10  10  10  10  10  10  10  10  10  10  10  10  10  10  10  10  10  10  10  10  10  10  10  10  10  10  10  10  10  10  10  10  10  10  10  10  10  10  10  10  10  10  10  10  10  10  10  10  10  10  10  10  10  10  10  10  10  10  10  10  10  10  10  10  10  10  10  10  10  10  10  10  10  10  10  10  10  10  10  10  10  10  10  10  10  10  10  10  10  10  10  10  10  10  10  10  10  10  10  10  10  10  10  10  10  10  10  10  10  10  10  10  10  10  10  10  10  10  10  10  10  10  10  10  10  10  10  10  10  10  10  10  10  10  10  10  10  10  10  10  10  10  10  10  10  10  10 </DataArray>
</Cells>
</Piece>
</UnstructuredGrid>
</VTKFile>
