<VTKFile type="UnstructuredGrid" version="0.1" byte_order="LittleEndian">
<UnstructuredGrid>
<Piece NumberOfPoints="27" NumberOfCells="48">
<Points>
<DataArray type="Float64" NumberOfComponents="3" Format="ascii">                        0                        0                        0                       0.5                        0                        0                         1                        0                        0                         0                      0.5                        0                       0.5                      0.5                        0                         1                      0.5                        0                         0                        1                        0                       0.5                        1                        0                         1                        1                        0                         0                        0                      0.5                       0.5                        0                      0.5                         1                        0                      0.5                         0                      0.5                      0.5                       0.5                      0.5                      0.5                         1                      0.5                      0.5                         0                        1                      0.5                       0.5                        1                      0.5                         1                        1                      0.5                         0                        0                        1                       0.5                        0                        1                         1                        0                        1                         0                      0.5                        1                       0.5                      0.5                        1                         1                      0.5                        1                         0                        1                        1                       0.5                        1                        1                         1                        1                        1 </DataArray>
</Points>
<PointData Scalars="scalars">
<DataArray type="Int64" Name="v_bdry" Format="ascii"> 1  1  1  1  1  1  1  1  1  1  1  1  1  0  1  1  1  1  1  1  1  1  1  1  1  1  1 </DataArray>
</PointData>
<Cells>
<DataArray type="Int64" Name="offsets" Format="ascii"> 4  8  12  16  20  24  28  32  36  40  44  48  52  56  60  64  68  72  76  80  84  88  92  96  100  104  108  112  116  120  124  128  132  136  140  144  148  152  156  160  164  168  172  176  180  184  188  192 </DataArray>
<DataArray type="Int64" Name="connectivity" Format="ascii">
 0  10  9  13  0  1  10  13  0  4  1  13  0  9  12  13  0  12  3  13  0  3  4  13  1  11  10  14  1  2  11  14  1  5  2  14  1  10  13  14  1  13  4  14  1  4  5  14  3  13  12  16  3  4  13  16  3  7  4  16  3  12  15  16  3  15  6  16  3  6  7  16  4  14  13  17  4  5  14  17  4  8  5  17  4  13  16  17  4  16  7  17  4  7  8  17  9  19  18  22  9  10  19  22  9  13  10  22  9  18  21  22  9  21  12  22  9  12  13  22  10  20  19  23  10  11  20  23  10  14  11  23  10  19  22  23  10  22  13  23  10  13  14  23  12  22  21  25  12  13  22  25  12  16  13  25  12  21  24  25  12  24  15  25  12  15  16  25  13  23  22  26  13  14  23  26  13  17  14  26  13  22  25  26  13  25  16  26  13  16  17  26 </DataArray>
<DataArray type="Int64" Name="types" Format="ascii"> 10  10  10  10  10  10  10  10  10  10  10  10  10  10  10  10  10  10  10  10  10  10  10  10  10  10  10  10  10  10  10  10  10  10  10  10  10  10  10  10  10  10  10  10  10  10  10  10 </DataArray>
</Cells>
</Piece>
</UnstructuredGrid>
</VTKFile>
