<VTKFile type="UnstructuredGrid" version="0.1" byte_order="LittleEndian">
<UnstructuredGrid>
<Piece NumberOfPoints="729" NumberOfCells="3072">
<Points>
<DataArray type="Float64" NumberOfComponents="3" Format="ascii">                      0                       0                       0                     0.5                       0                       0                       1                       0                       0                       0                     0.5                       0                     0.5                     0.5                       0                       1                     0.5                       0                       0                       1                       0                     0.5                       1                       0                       1                       1                       0                       0                       0                     0.5                     0.5                       0                     0.5                       1                       0                     0.5                       0                     0.5                     0.5                     0.5                     0.5                     0.5                       1                     0.5                     0.5                       0                       1                     0.5                     0.5                       1                     0.5                       1                       1                     0.5                       0                       0                       1                     0.5                       0                       1                       1                       0                       1                       0                     0.5                       1                     0.5                     0.5                       1                       1                     0.5                       1                       0                       1                       1                     0.5                       1                       1                       1                       1                       1                    0.25                    0.25                    0.25                    0.75                    0.25                    0.25                    0.25                    0.75                    0.25                    0.75                    0.75                    0.25                    0.25                    0.25                    0.75                    0.75                    0.25                    0.75                    0.25                    0.75                    0.75                    0.75                    0.75                    0.75                    0.25                       0                    0.25                    0.25                    0.25                     0.5                     0.5                    0.25                    0.25                    0.25                    0.25                       0                    0.25                     0.5                    0.25                       0                    0.25                    0.25                       1                    0.25                    0.25                    0.75                    0.25                     0.5                    0.75                     0.5                    0.25                    0.75                    0.25                       0                    0.75                       0                    0.25                       0                    0.75                    0.25                    0.25                    0.75                     0.5                    0.25                    0.75                       0                     0.5                    0.75                    0.25                    0.25                       1                    0.25                    0.75                       1                    0.25                    0.75                    0.75                     0.5                    0.75                    0.75                       0                       1                    0.75                    0.25                    0.25                    0.25                       1                    0.25                     0.5                    0.75                     0.5                    0.25                    0.75                    0.25                       0                    0.75                       0                    0.25                    0.75                    0.75                    0.25                       1                    0.75                     0.5                    0.75                       1                    0.25                    0.75                    0.75                       0                    0.75                    0.25                    0.75                       1                     0.5                    0.75                    0.75                       0                    0.75                    0.75                    0.25                       1                    0.75                    0.75                    0.75                       1                    0.75                       1                    0.75                       1                    0.75                    0.75                       0                       0                    0.25                    0.25                       0                     0.5                    0.25                       0                       0                     0.5                       0                    0.25                     0.5                    0.25                     0.5                    0.25                     0.5                     0.5                       0                    0.25                     0.5                     0.5                     0.5                    0.25                     0.5                    0.25                       0                       0                    0.25                       0                    0.25                     0.5                       0                       0                     0.5                    0.25                       1                       0                    0.25                       1                    0.25                     0.5                       1                    0.25                       0                       1                     0.5                    0.25                    0.75                     0.5                     0.5                    0.75                       0                     0.5                    0.75                     0.5                       0                    0.75                       0                       0                       0                       1                    0.25                       0                    0.75                     0.5                       0                    0.75                       0                     0.5                    0.75                     0.5                    0.25                       1                     0.5                    0.25                       1                       0                     0.5                    0.75                       0                     0.5                       1                    0.25                       1                       1                    0.25                    0.75                       1                     0.5                    0.75                       1                       0                       1                    0.75                     0.5                       1                    0.75                       0                       0                    0.25                       1                    0.25                     0.5                       1                    0.25                       0                       1                     0.5                    0.25                       1                     0.5                     0.5                    0.75                       0                     0.5                    0.75                     0.5                       0                    0.75                       0                       0                    0.75                    0.75                       0                       1                       1                    0.25                       1                    0.75                     0.5                       1                       1                     0.5                    0.75                       1                       0                    0.75                    0.25                       1                       1                     0.5                    0.75                       1                       0                    0.75                       1                     0.5                       1                    0.75                       0                       1                    0.75                       1                    0.75                       1                    0.75                       1                       1                       1                       1                    0.75                   0.125                   0.125                   0.125                   0.125                   0.125                   0.375                   0.375                   0.125                   0.375                   0.125                   0.125                   0.625                   0.375                   0.125                   0.625                   0.375                   0.125                   0.125                   0.625                   0.125                   0.125                   0.625                   0.125                   0.375                   0.375                   0.375                   0.375                   0.625                   0.375                   0.375                   0.625                   0.375                 
[...]
<CellData Scalars="scalars">
<DataArray type="Float64" Name="L (layer)" Format="ascii"> 1  1  1  1  1  1  1  1  1  1  1  1  1  1  1  1  1  1  1  1  1  1  1  1  1  1  1  1  1  1  1  1  1  1  1  1  1  1  1  1  1  1  1  1  1  1  1  1  1  1  1  1  1  1  1  1  1  1  1  1  1  1  1  1  1  1  1  1  1  1  1  1  1  1  1  1  1  1  1  1  1  1  1  1  1  1  1  1  1  1  1  1  1  1  1  1  1  1  1  1  1  1  1  1  1  1  1  1  1  1  1  1  1  1  1  1  2  2  2  2  1  1  1  1  1  1  1  1  1  1  1  1  1  1  1  1  1  1  1  1  1  1  1  1  1  1  1  1  2  2  2  2  2  2  2  2  1  1  1  1  2  2  2  2  1  1  1  1  2  2  2  2  2  2  2  2  1  1  1  1  1  1  1  1  1  1  1  1  1  1  1  1  1  1  1  1  2  2  2  2  1  1  1  1  1  1  1  1  1  1  1  1  1  1  1  1  1  1  1  1  1  1  1  1  1  1  1  1  1  1  1  1  1  1  1  1  1  1  1  1  1  1  1  1  1  1  1  1  1  1  1  1  2  2  2  2  2  2  2  2  1  1  1  1  1  1  1  1  1  1  1  1  1  1  1  1  1  1  1  1  1  1  1  1  2  2  2  2  2  2  2  2  1  1  1  1  2  2  2  2  2  2  2  2  2  2  2  2  2  2  2  2  2  2  2  2  2  2  2  2  2  2  2  2  2  2  2  2  2  2  2  2  2  2  2  2  2  2  2  2  2  2  2  2  2  2  2  2  2  2  2  2  2  2  2  2  2  2  2  2  2  2  2  2  2  2  2  2  2  2  2  2  2  2  2  2  2  2  2  2  2  2  2  2  2  2  2  2  2  2  2  2  2  2  2  2  2  2  2  2  2  2  2  2  2  2  2  2  2  2  2  2  2  2  2  2  2  2  2  2  2  2  2  2  2  2  2  2  2  2  2  2  2  2  2  2  2  2  2  2  2  2  2  2  1  1  1  1  1  1  1  1  1  1  1  1  1  1  1  1  1  1  1  1  1  1  1  1  1  1  1  1  1  1  1  1  1  1  1  1  1  1  1  1  1  1  1  1  1  1  1  1  1  1  1  1  1  1  1  1  1  1  1  1  1  1  1  1  1  1  1  1  1  1  1  1  1  1  1  1  1  1  1  1  1  1  1  1  1  1  1  1  1  1  1  1  1  1  1  1  1  1  1  1  1  1  1  1  1  1  1  1  1  1  1  1  1  1  1  1  1  1  1  1  1  1  1  1  1  1  1  1  1  1  1  1  1  1  1  1  1  1  1  1  1  1  1  1  1  1  1  1  2  2  2  2  2  2  2  2  1  1  1  1  2  2  2  2  1  1  1  1  2  2  2  2  2  2  2  2  1  1  1  1  1  1  1  1  1  1  1  1  1  1  1  1  1  1  1  1  1  1  1  1  2  2  2  2  2  2  2  2  2  2  2  2  2  2  2  2  1  1  1  1  1  1  1  1  2  2  2  2  2  2  2  2  1  1  1  1  1  1  1  1  1  1  1  1  1  1  1  1  1  1  1  1  1  1  1  1  1  1  1  1  1  1  1  1  1  1  1  1  1  1  1  1  1  1  1  1  1  1  1  1  1  1  1  1  1  1  1  1  1  1  1  1  1  1  1  1  1  1  1  1  1  1  1  1  1  1  1  1  1  1  1  1  1  1  1  1  1  1  1  1  1  1  1  1  1  1  1  1  1  1  1  1  1  1  1  1  1  1  1  1  1  1  1  1  1  1  1  1  1  1  1  1  1  1  1  1  2  2  2  2  2  2  2  2  1  1  1  1  1  1  1  1  1  1  1  1  1  1  1  1  1  1  1  1  1  1  1  1  2  2  2  2  2  2  2  2  1  1  1  1  2  2  2  2  2  2  2  2  2  2  2  2  2  2  2  2  2  2  2  2  2  2  2  2  2  2  2  2  2  2  2  2  2  2  2  2  2  2  2  2  2  2  2  2  2  2  2  2  2  2  2  2  2  2  2  2  2  2  2  2  2  2  2  2  2  2  2  2  2  2  2  2  2  2  2  2  2  2  2  2  2  2  2  2  2  2  2  2  2  2  2  2  2  2  2  2  2  2  2  2  2  2  2  2  2  2  2  2  2  2  2  2  2  2  2  2  2  2  2  2  2  2  2  2  2  2  2  2  2  2  2  2  2  2  2  2  2  2  2  2  2  2  2  2  2  2  2  2  2  2  2  2  2  2  2  2  2  2  2  2  2  2  2  2  2  2  2  2  2  2  2  2  2  2  2  2  2  2  2  2  2  2  2  2  2  2  2  2  2  2  2  2  2  2  2  2  2  2  2  2  1  1  1  1  1  1  1  1  1  1  1  1  2  2  2  2  2  2  2  2  2  2  2  2  2  2  2  2  2  2  2  2  2  2  2  2  2  2  2  2  2  2  2  2  2  2  2  2  2  2  2  2  2  2  2  2  2  2  2  2  2  2  2  2  2  2  2  2  2  2  2  2  2  2  2  2  2  2  2  2  2  2  2  2  1  1  1  1  1  1  1  1  2  2  2  2  2  2  2  2  2  2  2  2  2  2  2  2  2  2  2  2  2  2  2  2  2  2  2  2  2  2  2  2  2  2  2  2  2  2  2  2  1  1  1  1  1  1  1  1  2  2  2  2  2  2  2  2  2  2  2  2  2  2  2  2  2  2  2  2  2  2  2  2  1  1  1  1  1  1  1  1  2  2  2  2  2  2  2  2  2  2  2  2  2  2  2  2  2  2  2  2  2  2  2  2  2  2  2  2  2  2  2  2  1  1  1  1  2  2  2  2  2  2  2  2  2  2  2  2  1  1  1  1  1  1  1  1  2  2  2  2  1  1  1  1  1  1  1  1  1  1  1  1  1  1  1  1  1  1  1  1  1  1  1  1  1  1  1  1  1  1  1  1  1  1  1  1  1  1  1  1  1  1  1  1  1  1  1  1  1  1  1  1  1  1  1  1  1  1  1  1  1  1  1  1  1  1  1  1  1  1  1  1  1  1  1  1  1  1  1  1  1  1  1  1  1  1  1  1  1  1  1  1  1  1  1  1  1  1  1  1  1  1  1  1  1  1  1  1  1  1  1  1  1  1  1  1  1  1  1  1  1  1  1  1  1  1  1  1  1  1  1  1  1  1  1  1  1  1  1  1  1  1  1  1  1  1  1  1  1  1  1  1  1  1  1  1  1  1  1  1  1  1  1  1  1  1  1  1  1  1  1  1  1  1  1  1  1  1  1  1  1  1  1  1  1  1  1  1  1  1  1  1  1  1  1  1  1  1  1  1  1  1  1  1  1  1  1  1  1  1  1  1  1  1  1  1  1  1  1  1  1  1  1  1  1  1  1  1  1  1  1  1  1  1  1  1  1  1  1  1  1  1  1  1  1  1  1  1  1  1  1  1  2  2  2  2  2  2  2  2  1  1  1  1  2  2  2  2  2  2  2  2  1  1  1  1  1  1  1  1  1  1  1  1  1  1  1  1  1  1  1  1  1  1  1  1  1  1  1  1  1  1  1  1  1  1  1  1  1  1  1  1  1  1  1  1  1  1  1  1  1  1  1  1  1  1  1  1  1  1  1  1  1  1  1  1  1  1  1  1  1  1  1  1  1  1  1  1  1  1  1  1  1  1  1  1  1  1  1  1  1  1  1  1  1  1  1  1  1  1  1  1  1  1  1  1  1  1  1  1  1  1  1  1  1  1  1  1  1  1  1  1  1  1  1  1  1  1  1  1  1  1  1  1  1  1  1  1  1  1  1  1  1  1  1  1  1  1  1  1  1  1  1  1  1  1  1  1  1  1  1  1  1  1  1  1  1  1  1  1  1  1  1  1  1  1  1  1  1  1  1  1  1  1  1  1  1  1  1  1  1  1  1  1  1  1  1  1  1  1  1  1  1  1  1  1  1  1  1  1  1  1  1  1  1  1  1  1  1  1  1  1  1  1  1  1  1  1  1  1  1  1  1  1  1  1  1  1  2  2  2  2  1  1  1  1  1  1  1  1  1  1  1  1  2  2  2  2  2  2  2  2  1  1  1  1  2  2  2  2  1  1  1  1  1  1  1  1  2  2  2  2  1  1  1  1  1  1  1  1  1  1  1  1  1  1  1  1  1  1  1  1  1  1  1  1  1  1  1  1  1  1  1  1  1  1  1  1  2  2  2  2  2  2  2  2  1  1  1  1  2  2  2  2  2  2  2  2  2  2  2  2  2  2  2  2  2  2  2  2  2  2  2  2  2  2  2  2  2  2  2  2  2  2  2  2  2  2  2  2  2  2  2  2  2  2  2  2  2  2  2  2  2  2  2  2  2  2  2  2  2  2  2  2  2  2  2  2  2  2  2  2  2  2  2  2  1  1  1  1  1  1  1  1  1  1  1  1  1  1  1  1  1  1  1  1  1  1  1  1  1  1  1  1  1  1  1  1  1  1  1  1  1  1  1  1  1  1  1  1  1  1  1  1  1  1  1  1  1  1  1  1  1  1  1  1  1  1  1  1  2  2  2  2  1  1  1  1  2  2  2  2  2  2  2  2  1  1  1  1  1  1  1  1  1  1  1  1  1  1  1  1  2  2  2  2  2  2  2  2  2  2  2  2  2  2  2  2  2  2  2  2  2  2  2  2  2  2  2  2  2  2  2  2  2  2  2  2  2  2  2  2  2  2  2  2  2  2  2  2  2  2  2  2  2  2  2  2  2  2  2  2  2  2  2  2  2  2  2  2  2  2  2  2  2  2  2  2  2  2  2  2  1  1  1  1  1  1  1  1  1  1  1  1  1  1  1  1  1  1  1  1  1  1  1  1  1  1  1  1  1  1  1  1  1  1  1  1  1  1  1  1  1  1  1  1  1  1  1  1  1  1  1  1  1  1  1  1  1  1  1  1  1  1  1  1  1  1  1  1  2  2  2  2  2  2  2  2  1  1  1  1  2  2  2  2  2  2  2  2  1  1  1  1  1  1  1  1  1  1  1  1  1  1  1  1  2  2  2  2  2  2  2  2  2  2  2  2  2  2  2  2  2  2  2  2  2  2  2  2  2  2  2  2  2  2  2  2  2  2  2  2  2  2  2  2  2  2  2  2  2  2  2  2  2  2  2  2  1  1  1  1  1  1  1  1  1  1  1  1  2  2  2  2  2  2  2  2  2  2  2  2  2  2  2  2  2  2  2  2  2  2  2  2  2  2  2  2  2  2  2  2  2  2  2  2  2  2  2  2  2  2  2  2  2  2  2  2  2  2  2  2  2  2  2  2  2  2  2  2  2  2  2  2  1  1  1  1  2  2  2  2  2  2  2  2  2  2  2  2  1  1  1  1  1  1  1  1  2  2  2  2  1  1  1  1  1  1  1  1  1  1  1  1  1  1  1  1  1  1  1  1  1  1  1  1  1  1  1  1  1  1  1  1  1  1  1  1  1  1  1  1  1  1  1  1  1  1  1  1  1  1  1  1  1  1  1  1  1  1  1  1  1  1  1  1  1  1  1  1  1  1  1  1  1  1  1  1  1  1  1  1  1  1  1  1  1  1  1  1  1  1  1  1  1  1  1  1  1  1  1  1  1  1  1  1  1  1  1  1  1  1  1  1  1  1  1  1  1  1  1  1  1  1  1  1  1  1  1  1  1  1  1  1  1  1  1  1  1  1  1  1  2  2  2  2  2  2  2  2  1  1  1  1  2  2  2  2  2  2  2  2  2  2  2  2  2  2  2  2  2  2  2  2  2  2  2  2  2  2  2  2  2  2  2  2  2  2  2  2  2  2  2  2  2  2  2  2  2  2  2  2  2  2  2  2  2  2  2  2  2  2  2  2  2  2  2  2  2  2  2  2  2  2  2  2  2  2  2  2  2  2  2  2  2  2  2  2  2  2  2  2  2  2  2  2  2  2  2  2  2  2  2  2  2  2  2  2  2  2  2  2  2  2  2  2  2  2  2  2  2  2  2  2  2  2  2  2  2  2  2  2  2  2  2  2  2  2  2  2  2  2  2  2  2  2  2  2  2  2  2  2  2  2  2  2  2  2  2  2  2  2  2  2  2  2  2  2  2  2  2  2  2  2  2  2  2  2  2  2  2  2  2  2  2  2  2  2  2  2  2  2  2  2  2  2  2  2  2  2  2  2  2  2  2  2  2  2  2  2  2  2  2  2  2  2  2  2  2  2  2  2  2  2  2  2  2  2  2  2  2  2  2  2  2  2  2  2  2  2  2  2  2  2  2  2  2  2  2  2  2  2  2  2  2  2  2  2  2  2  2  2  2  2  2  2  2  2  2  2  2  2  2  2  2  2  2  2  2  2  2  2  2  2  2  2  2  2  2  2  2  2  2  2  2  2  2  2  2  2  2  2  2  2  2  2  2  2  2  2  2  2  2  2  2  2  2  2  2  2  2  2  2  2  2  2  2  2  2  2  2  2  2  2  2  2  2  2  2  2  2  2  2  2  2  2  2  2  2  2  2  2  2  2  2  2  2  2  2  2  2  2  2  2  2  2  2  2  2  2  2  2  2  2  2  2  2  2  2  2  2  2  2  2  2  2  2  2  2  2  2  2  2  2  2  2  2  2  2  2  2  2  2  2  2  2  2  2  2  2  2  2  2  2  2  2  2  2  2  2  2  2  2  2  2  2  2  2  2  2  2  2  2  2  2  2  2  2  2  2  2  2  2  2  2  2  2  2  2  2  2  2  2  2  2  2  2  2  2  2  2  2  2  2  2  2  2  2  2  2  2  2  2  2  2  2  2  2  2  2  2  2  2  2  2  2  2  2  2  2  2  2  2  2  2  2  2  2  2  2  2  2  2  2  2  2  2  2  2  2  2  2  2  2  2  2  2  2  2  2  2  2  2  2  2  2  2  2  2  2  2  2  2  2  2  2 </DataArray>
</CellData>
<PointData Scalars="scalars">
<DataArray type="Int64" Name="v_bdry" Format="ascii"> 1  19  2  1  19  2  1  21  2  1  18  2  1  0  2  1  21  2  1  22  2  1  22  2  1  22  2  1  2  1  2  1  2  1  2  18  1  19  19  1  1  2  2  2  19  18  1  1  19  21  21  21  2  19  2  22  1  22  18  1  22  2  2  18  22  22  1  21  22  21  2  1  18  19  19  18  1  1  19  19  1  19  1  2  2  2  2  2  18  19  19  1  1  1  21  21  21  21  21  2  21  21  2  2  1  22  22  22  22  1  22  1  22  2  22  2  2  22  22  1  22  1  2  22  2  1  1  18  1  18  19  19  18  1  2  2  18  1  1  1  1  1  1  1  19  2  19  19  19  1  1  2  2  2  2  2  2  2  2  2  2  1  1  1  21  21  21  21  21  21  2  2  2  1  1  22  1  22  22  22  22  22  2  2  2  1  22  22  2  18  1  19  19  1  1  18  18  1  1  1  18  19  19  18  18  18  1  1  1  18  18  22  22  18  19  19  19  19  19  19  19  19  19  18  18  18  18  1  1  1  19  19  19  2  2  2  18  2  2  22  22  18  18  22  22  1  1  1  1  1  1  1  22  22  21  1  1  1  1  1  1  21  21  19  1  1  1  1  1  1  19  19  19  19  19  2  2  21  19  19  21  21  21  19  19  19  19  19  19  1  1  1  1  19  2  2  2  19  18  2  2  2  18  2  2  2  2  2  18  2  2  2  2  2  2  2  19  2  19  2  2  2  2  2  2  21  22  2  2  2  1  1  19  21  21  1  1  21  21  21  21  1  1  21  21  22  22  22  21  21  21  21  21  21  21  21  21  21  21  21  21  21  21  21  2  19  2  21  2  2  2  2  21  22  1  22  18  1  22  22  1  1  22  22  22  22  22  1  1  22  22  22  22  22  22  22  22  22  22  22  22  22  22  22  22  22  22  2  2  18  22  2  2  2  2  22  22  22  1  21  22  22  22  22  22  22  22  21  2  1  18  19  19  18  1  1  19  19  1  19  1  1  18  18  1  18  1  1  1  18  19  19  19  19  18  19  18  1  18  18  1  1  1  1  18  22  22  22  22  22  19  19  19  19  19  19  18  19  19  19  19  19  19  2  18  18  18  18  18  1  1  1  1  19  19  19  2  19  2  2  2  2  22  2  2  22  22  22  18  18  22  1  22  1  1  1  1  1  1  1  1  1  22  22  21  22  21  1  1  1  1  1  1  1  21  21  21  1  1  1  1  1  1  19  19  19  19  19  2  21  2  2  21  19  19  21  21  21  19  21  19  19  19  19  1  19  1  1  1  19  2  2  2  2  2  18  19  19  2  2  2  2  18  2  2  2  2  2  2  2  2  18  2  2  2  2  2  2  19  2  2  2  19  2  2  2  2  2  2  22  2  2  2  1  1  1  21  21  21  21  21  1  1  21  21  21  21  21  1  21  1  21  21  22  22  22  21  22  21  21  21  21  21  21  21  21  21  21  21  21  21  21  21  2  21  21  2  2  2  21  2  2  2  21  1  22  22  22  22  1  22  1  1  22  22  22  1  22  22  22  22  22  22  22  1  1  22  22  22  22  22  22  22  22  22  22  22  22  22  22  22  22  22  22  22  2  22  2  2  2  22  2  2  2  22  22  22  1  22  1  22  22  22  22  22  22  2  22  2 </DataArray>