<VTKFile type="UnstructuredGrid" version="0.1" byte_order="LittleEndian">
<UnstructuredGrid>
<Piece NumberOfPoints="27" NumberOfCells="48">
<Points>
<DataArray type="Float64" NumberOfComponents="3" Format="ascii">                      0                       0                       0                     0.5                       0                       0                       1                       0                       0                       0                     0.5                       0                     0.5                     0.5                       0                       1                     0.5                       0                       0                       1                       0                     0.5                       1                       0                       1                       1                       0                       0                       0                     0.5                     0.5                       0                     0.5                       1                       0                     0.5                       0                     0.5                     0.5                     0.5                     0.5                     0.5                       1                     0.5                     0.5                       0                       1                     0.5                     0.5                       1                     0.5                       1                       1                     0.5                       0                       0                       1                     0.5                       0                       1                       1                       0                       1                       0                     0.5                       1                     0.5                     0.5                       1                       1                     0.5                       1                       0                       1                       1                     0.5                       1                       1                       1                       1                       1 </DataArray>
</Points>
<CellData Scalars="scalars">
<DataArray type="Float64" Name="L (layer)" Format="ascii"> 1  1  1  1  1  1  1  1  1  1  1  1  1  1  1  1  1  1  1  1  1  1  1  1  2  2  2  2  2  2  2  2  2  2  2  2  2  2  2  2  2  2  2  2  2  2  2  2 </DataArray>
</CellData>
<PointData Scalars="scalars">
<DataArray type="Int64" Name="v_bdry" Format="ascii"> 1  19  2  1  19  2  1  21  2  1  18  2  1  0  2  1  21  2  1  22  2  1  22  2  1  22  2 </DataArray>
<DataArray type="Float64" Name="ele" Format="ascii"> 0.000000e+00  0.000000e+00  0.000000e+00  0.000000e+00  0.000000e+00  0.000000e+00  0.000000e+00  0.000000e+00  0.000000e+00  0.000000e+00  0.000000e+00  0.000000e+00  0.000000e+00  0.000000e+00  0.000000e+00  0.000000e+00  0.000000e+00  0.000000e+00  0.000000e+00  0.000000e+00  0.000000e+00  0.000000e+00  0.000000e+00  0.000000e+00  0.000000e+00  0.000000e+00  0.000000e+00 </DataArray>
</PointData>
<Cells>
<DataArray type="Int64" Name="offsets" Format="ascii"> 4  8  12  16  20  24  28  32  36  40  44  48  52  56  60  64  68  72  76  80  84  88  92  96  100  104  108  112  116  120  124  128  132  136  140  144  148  152  156  160  164  168  172  176  180  184  188  192 </DataArray>
<DataArray type="Int64" Name="connectivity" Format="ascii">
0 9 10 13 0 1 10 13 0 1 4 13 0 9 12 13 0 3 12 13 0 3 4 13 2 11 14 13 2 5 14 13 2 5 4 13 2 11 10 13 2 1 10 13 2 1 4 13 6 15 12 13 6 3 12 13 6 3 4 13 6 15 16 13 6 7 16 13 6 7 4 13 8 17 16 13 8 7 16 13 8 7 4 13 8 17 14 13 8 5 14 13 8 5 4 13 13 22 21 18 13 12 21 18 13 12 9 18 13 22 19 18 13 10 19 18 13 10 9 18 13 22 19 20 13 10 19 20 13 10 11 20 13 22 23 20 13 14 23 20 13 14 11 20 13 22 25 24 13 16 25 24 13 16 15 24 13 22 21 24 13 12 21 24 13 12 15 24 13 22 23 26 13 14 23 26 13 14 17 26 13 22 25 26 13 16 25 26 13 16 17 26 </DataArray>
<DataArray type="Int64" Name="types" Format="ascii"> 10  10  10  10  10  10  10  10  10  10  10  10  10  10  10  10  10  10  10  10  10  10  10  10  10  10  10  10  10  10  10  10  10  10  10  10  10  10  10  10  10  10  10  10  10  10  10  10 </DataArray>
</Cells>
</Piece>
</UnstructuredGrid>
</VTKFile>
