<VTKFile type="UnstructuredGrid" version="0.1" byte_order="LittleEndian">
<UnstructuredGrid>
<Piece NumberOfPoints="1089" NumberOfCells="2048">
<Points>
<DataArray type="Float64" NumberOfComponents="3" Format="ascii">  0.0000000000000000e+00  0.0000000000000000e+00  0.0000000000000000e+00   3.1250000000000000e-02  0.0000000000000000e+00  0.0000000000000000e+00   6.2500000000000000e-02  0.0000000000000000e+00  0.0000000000000000e+00   9.3750000000000000e-02  0.0000000000000000e+00  0.0000000000000000e+00   1.2500000000000000e-01  0.0000000000000000e+00  0.0000000000000000e+00   1.5625000000000000e-01  0.0000000000000000e+00  0.0000000000000000e+00   1.8750000000000000e-01  0.0000000000000000e+00  0.0000000000000000e+00   2.1875000000000000e-01  0.0000000000000000e+00  0.0000000000000000e+00   2.5000000000000000e-01  0.0000000000000000e+00  0.0000000000000000e+00   2.8125000000000000e-01  0.0000000000000000e+00  0.0000000000000000e+00   3.1250000000000000e-01  0.0000000000000000e+00  0.0000000000000000e+00   3.4375000000000000e-01  0.0000000000000000e+00  0.0000000000000000e+00   3.7500000000000000e-01  0.0000000000000000e+00  0.0000000000000000e+00   4.0625000000000000e-01  0.0000000000000000e+00  0.0000000000000000e+00   4.3750000000000000e-01  0.0000000000000000e+00  0.0000000000000000e+00   4.6875000000000000e-01  0.0000000000000000e+00  0.0000000000000000e+00   5.0000000000000000e-01  0.0000000000000000e+00  0.0000000000000000e+00   5.3125000000000000e-01  0.0000000000000000e+00  0.0000000000000000e+00   5.6250000000000000e-01  0.0000000000000000e+00  0.0000000000000000e+00   5.9375000000000000e-01  0.0000000000000000e+00  0.0000000000000000e+00   6.2500000000000000e-01  0.0000000000000000e+00  0.0000000000000000e+00   6.5625000000000000e-01  0.0000000000000000e+00  0.0000000000000000e+00   6.8750000000000000e-01  0.0000000000000000e+00  0.0000000000000000e+00   7.1875000000000000e-01  0.0000000000000000e+00  0.0000000000000000e+00   7.5000000000000000e-01  0.0000000000000000e+00  0.0000000000000000e+00   7.8125000000000000e-01  0.0000000000000000e+00  0.0000000000000000e+00   8.1250000000000000e-01  0.0000000000000000e+00  0.0000000000000000e+00   8.4375000000000000e-01  0.0000000000000000e+00  0.0000000000000000e+00   8.7500000000000000e-01  0.0000000000000000e+00  0.0000000000000000e+00   9.0625000000000000e-01  0.0000000000000000e+00  0.0000000000000000e+00   9.3750000000000000e-01  0.0000000000000000e+00  0.0000000000000000e+00   9.6875000000000000e-01  0.0000000000000000e+00  0.0000000000000000e+00   1.0000000000000000e+00  0.0000000000000000e+00  0.0000000000000000e+00   0.0000000000000000e+00  3.1250000000000000e-02  0.0000000000000000e+00   3.1250000000000000e-02  3.1250000000000000e-02  0.0000000000000000e+00   6.2500000000000000e-02  3.1250000000000000e-02  0.0000000000000000e+00   9.3750000000000000e-02  3.1250000000000000e-02  0.0000000000000000e+00   1.2500000000000000e-01  3.1250000000000000e-02  0.0000000000000000e+00   1.5625000000000000e-01  3.1250000000000000e-02  0.0000000000000000e+00   1.8750000000000000e-01  3.1250000000000000e-02  0.0000000000000000e+00   2.1875000000000000e-01  3.1250000000000000e-02  0.0000000000000000e+00   2.5000000000000000e-01  3.1250000000000000e-02  0.0000000000000000e+00   2.8125000000000000e-01  3.1250000000000000e-02  0.0000000000000000e+00   3.1250000000000000e-01  3.1250000000000000e-02  0.0000000000000000e+00   3.4375000000000000e-01  3.1250000000000000e-02  0.0000000000000000e+00   3.7500000000000000e-01  3.1250000000000000e-02  0.0000000000000000e+00   4.0625000000000000e-01  3.1250000000000000e-02  0.0000000000000000e+00   4.3750000000000000e-01  3.1250000000000000e-02  0.0000000000000000e+00   4.6875000000000000e-01  3.1250000000000000e-02  0.0000000000000000e+00   5.0000000000000000e-01  3.1250000000000000e-02  0.0000000000000000e+00   5.3125000000000000e-01  3.1250000000000000e-02  0.0000000000000000e+00   5.6250000000000000e-01  3.1250000000000000e-02  0.0000000000000000e+00   5.9375000000000000e-01  3.1250000000000000e-02  0.0000000000000000e+00   6.2500000000000000e-01  3.1250000000000000e-02  0.0000000000000000e+00   6.5625000000000000e-01  3.1250000000000000e-02  0.0000000000000000e+00   6.8750000000000000e-01  3.1250000000000000e-02  0.0000000000000000e+00   7.1875000000000000e-01  3.1250000000000000e-02  0.0000000000000000e+00   7.5000000000000000e-01  3.1250000000000000e-02  0.0000000000000000e+00   7.8125000000000000e-01  3.1250000000000000e-02  0.0000000000000000e+00   8.1250000000000000e-01  3.1250000000000000e-02  0.0000000000000000e+00   8.4375000000000000e-01  3.1250000000000000e-02  0.0000000000000000e+00   8.7500000000000000e-01  3.1250000000000000e-02  0.0000000000000000e+00   9.0625000000000000e-01  3.1250000000000000e-02  0.0000000000000000e+00   9.3750000000000000e-01  3.1250000000000000e-02  0.0000000000000000e+00   9.6875000000000000e-01  3.1250000000000000e-02  0.0000000000000000e+00   1.0000000000000000e+00  3.1250000000000000e-02  0.0000000000000000e+00   0.0000000000000000e+00  6.2500000000000000e-02  0.0000000000000000e+00   3.1250000000000000e-02  6.2500000000000000e-02  0.0000000000000000e+00   6.2500000000000000e-02  6.2500000000000000e-02  0.0000000000000000e+00   9.3750000000000000e-02  6.2500000000000000e-02  0.0000000000000000e+00   1.2500000000000000e-01  6.2500000000000000e-02  0.0000000000000000e+00   1.5625000000000000e-01  6.2500000000000000e-02  0.0000000000000000e+00   1.8750000000000000e-01  6.2500000000000000e-02  0.0000000000000000e+00   2.1875000000000000e-01  6.2500000000000000e-02  0.0000000000000000e+00   2.5000000000000000e-01  6.2500000000000000e-02  0.0000000000000000e+00   2.8125000000000000e-01  6.2500000000000000e-02  0.0000000000000000e+00   3.1250000000000000e-01  6.2500000000000000e-02  0.0000000000000000e+00   3.4375000000000000e-01  6.2500000000000000e-02  0.0000000000000000e+00   3.7500000000000000e-01  6.2500000000000000e-02  0.0000000000000000e+00   4.0625000000000000e-01  6.2500000000000000e-02  0.0000000000000000e+00   4.3750000000000000e-01  6.2500000000000000e-02  0.0000000000000000e+00   4.6875000000000000e-01  6.2500000000000000e-02  0.0000000000000000e+00   5.0000000000000000e-01  6.2500000000000000e-02  0.0000000000000000e+00   5.3125000000000000e-01  6.2500000000000000e-02  0.0000000000000000e+00   5.6250000000000000e-01  6.2500000000000000e-02  0.0000000000000000e+00   5.9375000000000000e-01  6.2500000000000000e-02  0.0000000000000000e+00   6.2500000000000000e-01  6.2500000000000000e-02  0.0000000000000000e+00   6.5625000000000000e-01  6.2500000000000000e-02  0.0000000000000000e+00   6.8750000000000000e-01  6.2500000000000000e-02  0.0000000000000000e+00   7.1875000000000000e-01  6.2500000000000000e-02  0.0000000000000000e+00   7.5000000000000000e-01  6.2500000000000000e-02  0.0000000000000000e+00   7.8125000000000000e-01  6.2500000000000000e-02  0.0000000000000000e+00   8.1250000000000000e-01  6.2500000000000000e-02  0.0000000000000000e+00   8.4375000000000000e-01  6.2500000000000000e-02  0.0000000000000000e+00   8.7500000000000000e-01  6.2500000000000000e-02  0.0000000000000000e+00   9.0625000000000000e-01  6.2500000000000000e-02  0.0000000000000000e+00   9.3750000000000000e-01  6.2500000000000000e-02  0.0000000000000000e+00   9.6875000000000000e-01  6.2500000000000000e-02  0.0000000000000000e+00   1.0000000000000000e+00  6.2500000000000000e-02  0.0000000000000000e+00   0.0000000000000000e+00  9.3750000000000000e-02  0.0000000000000000e+00   3.1250000000000000e-02  9.3750000000000000e-02  0.0000000000000000e+00   6.2500000000000000e-02  9.3750000000000000e-02  0.0000000000000000e+00   9.3750000000000000e-02  9.3750000000000000e-02  0.0000000000000000e+00   1.2500000000000000e-01  9.3750000000000000e-02  0.0000000000000000e+00   1.5625000000000000e-01  9.3750000000000000e-02  0.0000000000000000e+00   1.8750000000000000e-01  9.3750000000000000e-02  0.0000000000000000e+00   2.1875000000000000e-01  9.3750000000000000e-02  0.0000000000000000e+00   2.5000000000000000e-01  9.3750000000000000e-02  0.0000000000000000e+00   2.8125000000000000e-01  9.3750000000000000e-02  0.0000000000000000e+00   3.1250000000000000e-01  9.3750000000000000e-02  0.0000000000000000e+00   3.4375000000000000e-01  9.3750000000000000e-02  0.0000000000000000e+00   3.7500000000000000e-01  9.3750000000000000e-02  0.0000000000000000e+00   4.0625000000000000e-01  9.3750000000000000e-02  0.0000000000000000e+00   4.3750000000000000e-01  9.3750000000000000e-02  0.0000000000000000e+00   4.6875000000000000e-01  9.3750000000000000e-02  0.0000000000000000e+00   5.0000000000000000e-01  9.3750000000000000e-02  0.0000000000000000e+00   5.3125000000000000e-01  9.3750000000000000e-02  0.0000000000000000e+00   5.6250000000000000e-01  9.3750000000000000e-02  0.0000000000000000e+00   5.9375000000000000e-01  9.3750000000000000e-02  0.0000000000000000e+00   6.2500000000000000e-01  9.3750000000000000e-02  0.0000000000000000e+00   6.5625000000000000e-01  9.3750000000000000e-02  0.0000000000000000e+00   6.8750000000000000e-01  9.3750000000000000e-02  0.0000000000000000e+00   7.1875000000000000e-01  9.3750000000000000e-02  0.0000000000000000e+00   7.5000000000000000e-01  9.3750000000000000e-02  0.0000000000000000e+00   7.8125000000000000e-01  9.3750000000000000e-02  0.0000000000000000e+00   8.1250000000000000e-01  9.3750000000000000e-02  0.0000000000000000e+00   8.4375000000000000e-01  9.3750000000000000e-02  0.0000000000000000e+00   8.7500000000000000e-01  9.3750000000000000e-02  0.0000000000000000e+00   9.0625000000000000e-01  9.3750000000000000e-02  0.0000000000000000e+00   9.3750000000000000e-01  9.3750000000000000e-02  0.0000000000000000e+00   9.6875000000000000e-01  9.3750000000000000e-02  0.0000000000000000e+00   1.0000000000000000e+00  9.3750000000000000e-02  0.0000000000000000e+00   0.0000000000000000e+00  1.2500000000000000e-01  0.0000000000000000e+00   3.1250000000000000e-02  1.2500000000000000e-01  0.0000000000000000e+00  
[...]
<PointData Scalars="scalars">
<DataArray type="Float64" Name="Solution Component 0 - ux" Format="ascii">  5.7535344852598765e-05  -4.0966544154876340e-04  -4.6642577999339715e-04  -4.8608410324777179e-04  -4.9439208587959962e-04  -4.9747294283973282e-04  -4.9731246685855092e-04  -4.9491623076350756e-04  -4.9086221061101962e-04  -4.8548569144407568e-04  -4.7899193760058361e-04  -4.7151777583540820e-04  -4.6316328596023032e-04  -4.5400828237039979e-04  -4.4412107751996447e-04  -4.3356314694756841e-04  -4.2239144907933599e-04  -4.1065918070659147e-04  -3.9841513778906645e-04  -3.8570125402824198e-04  -3.7254715367110561e-04  -3.5895866278725741e-04  -3.4489632818685581e-04  -3.3022628640863182e-04  -3.1465247834497074e-04  -2.9746770996849289e-04  -2.7759265291803540e-04  -2.5147564879460081e-04  -2.1751341234748479e-04  -1.4663423837966240e-04  -8.0940467689531425e-05   2.4203284488996356e-04  -6.6617864060437891e-04   2.6556453466798922e-04   8.8443735458819514e-04   1.7318770369142656e-03   2.6189859643947198e-03   3.5420550343900729e-03   4.4802074418255075e-03   5.4247764172025486e-03   6.3708594564823185e-03   7.3153200480215912e-03   8.2559079428189235e-03   9.1908599517533749e-03   1.0118703316465999e-02   1.1038149878674705e-02   1.1948036412425585e-02   1.2847290301115455e-02   1.3734909894991145e-02   1.4609953947531231e-02   1.5471537276992466e-02   1.6318831450169349e-02   1.7151070480849885e-02   1.7967562593958292e-02   1.8767710498124729e-02   1.9551043396232957e-02   2.0317268779369253e-02   2.1066338693518431e-02   2.1798586419132807e-02   2.2514719178593580e-02   2.3216566596213017e-02   2.3904354708524898e-02   2.4584613044031024e-02   2.5214753549182636e-02   2.5859358569406347e-02   2.5629211129295545e-02   2.8837173368330264e-04   1.8663914942544952e-03   3.7794555915518250e-03   5.6563113010840984e-03   7.5433093890393318e-03   9.4365754957245751e-03   1.1332364508130315e-02   1.3225638617297520e-02   1.5112284210880912e-02   1.6988885782604792e-02   1.8852511546285266e-02   2.0700565520306607e-02   2.2530690660714517e-02   2.4340706988283913e-02   2.6128572575448147e-02   2.7892359478493004e-02   2.9630239723452700e-02   3.1340478432984209e-02   3.3021432462073758e-02   3.4671553722611374e-02   3.6289396754285150e-02   3.7873630085079844e-02   3.9423049057302796e-02   4.0936587174290738e-02   4.2413301270243065e-02   4.3852345146306600e-02   4.5252640585772469e-02   4.6612910705114058e-02   4.7927629825950259e-02   4.9193923109082854e-02   5.0363687277998594e-02   5.1532172800548851e-02   5.1872601817836379e-02   2.8116834355603994e-04   2.8259620696757123e-03   5.7600598053573013e-03   8.6281692959761062e-03   1.1496195277125389e-02   1.4357148242110885e-02   1.7211203065992112e-02   2.0055238990662545e-02   2.2885630011110911e-02   2.5698592671957014e-02   2.8490481970709761e-02   3.1257847307936751e-02   3.3997424245381991e-02   3.6706113305967236e-02   3.9380959865620666e-02   4.2019138605482863e-02   4.4617942734213267e-02   4.7174777223487632e-02   4.9687155009839369e-02   5.2152694847473667e-02   5.4569118810890722e-02   5.6934245998996248e-02   5.9245975251108390e-02   6.1502245840178632e-02   6.3700941621937332e-02   6.5839733280283821e-02   6.7915578791354736e-02   6.9924555765591909e-02   7.1858388494982828e-02   7.3713585746015997e-02   7.5452631489357214e-02   7.7188472269519526e-02   7.8100734314374060e-02   2.6420947889444705e-04   3.7898810104612614e-03   7.7120882024158477e-03   1.1564580194341000e-02   1.5411482925275433e-02   1.9240983756411135e-02   2.3055239782903390e-02   2.6851324942165369e-02   3.0625732717121185e-02   3.4374462137521961e-02   3.8093381788898123e-02   4.1778367794159679e-02   4.5425377543338183e-02   4.9030479720079199e-02   5.2589863510019694e-02   5.6099839171081155e-02   5.9556835340185105e-02   6.2957395026825194e-02   6.6298170397761036e-02   6.9575915115341377e-02   7.2787471484371813e-02   7.5929747538453329e-02   7.8999675332545843e-02   8.1994138267960259e-02   8.4909838014988984e-02   8.7743107845498755e-02   9.0489479695677597e-02   9.3143786545655097e-02   9.5697880406606234e-02   9.8150929616799748e-02   1.0047388354067767e-01   1.0277849417706629e-01   1.0426840503247861e-01   2.4126924774372813e-04   4.7547768644862817e-03   9.6478989898620537e-03   1.4475421865072453e-02   1.9294511854523386e-02   2.4089524445718494e-02   2.8862188767492001e-02   3.3608755936633740e-02   3.8325487488747284e-02   4.3007989948446533e-02   4.7651608354687944e-02   5.2251578640870093e-02   5.6803133594911792e-02   6.1301560142180966e-02   6.5742230396337406e-02   7.0120617139165078e-02   7.4432299984160094e-02   7.8672965421865942e-02   8.2838401724999039e-02   8.6924487932406244e-02   9.0927174447561945e-02   9.4842450930532660e-02   9.8666294740892183e-02   1.0239459271772587e-01   1.0602302204082997e-01   1.0954692230325797e-01   1.1296105460647164e-01   1.1626003277596664e-01   1.1943684731355682e-01   1.2249265836033095e-01   1.2540278304121757e-01   1.2827178400881278e-01   1.3033443879285286e-01   2.1331488049810982e-04   5.7169937843895248e-03   1.1571400623241777e-02   1.7365288315029204e-02   2.3148679770147271e-02   2.8903468133883271e-02   3.4629919499639915e-02   4.0323095450468374e-02   4.5978592105528522e-02   5.1591345112309145e-02   5.7156053314920414e-02   6.2667267582340036e-02   6.8119490135646707e-02   7.3507237651093543e-02   7.8825082276505559e-02   8.4067675913861814e-02   8.9229762814712454e-02   9.4306183454499162e-02   9.9291870916761879e-02   1.0418183956671001e-01   1.0897116456141669e-01   1.1365494979598817e-01   1.1822828155604177e-01   1.2268616787297984e-01   1.2702346494719141e-01   1.3123483844337480e-01   1.3531470357912029e-01   1.3925781707072130e-01   1.4305815676491637e-01   1.4671750747585183e-01   1.5021354030613146e-01   1.5364180131199084e-01   1.5627824515891670e-01   1.8084751936714108e-04   6.6746216348525624e-03   1.3482606303574047e-02   2.0234727127357948e-02   2.6974257547331300e-02   3.3681791922656294e-02   4.0355805445198442e-02   4.6990047667577889e-02   5.3579153406977546e-02   6.0117201531060427e-02   6.6598122732666451e-02   7.3015708338485724e-02   7.9363693532977397e-02   8.5635811997066963e-02   9.1825836386201523e-02   9.7927604999949597e-02   1.0393503753434967e-01   1.0984214180476029e-01   1.1564301253653635e-01   1.2133182253506541e-01   1.2690280605567847e-01   1.3235023427969089e-01   1.3766838422063021e-01   1.4285150672497687e-01   1.4789380449232925e-01   1.5278946683109082e-01   1.5753272102559493e-01   1.6211841992225171e-01   1.6654107285337993e-01   1.7080211958985120e-01   1.7488088994323772e-01   1.7886312035391450e-01   1.8207402587821744e-01   1.4429202860127176e-04   7.6264148267918119e-03   1.5380233911183788e-02   2.3082617124706006e-02   3.0769975000292552e-02   3.8422416423932300e-02   4.6036627640259870e-02   5.3605077119048022e-02   6.1121301927610408e-02   6.8578415919171909e-02   7.5969481197615055e-02   8.3287459575688963e-02   9.0525276902243698e-02   9.7675861575982986e-02   1.0473217865418252e-01   1.1168725447787255e-01   1.1853419283983919e-01   1.2526618348187649e-01   1.3187650376940829e-01   1.3835851426806528e-01   1.4470564916115969e-01   1.5091140326956198e-01   1.5696931973619413e-01   1.6287298646117199e-01   1.6861605503976906e-01   1.7419231663603518e-01   1.7959580095405930e-01   1.8482127066559426e-01   1.8986337051953323e-01   1.9472264165850206e-01   1.9937992266261745e-01   2.0391060783234846e-01   2.0769626037193445e-01   1.0406997554737274e-04   8.5713161688598938e-03   1.7262654717626592e-02   2.5907048558790356e-02   3.4533568679612374e-02   4.3122408106645298e-02   5.1668568632731025e-02   6.0163320201349596e-02   6.8599060117936317e-02   7.6967885710740785e-02   8.5261927793779071e-02   9.3473269458195174e-02   1.0159399179728827e-01   1.0961619620986141e-01   1.1753203037044355e-01   1.2533370846894037e-01   1.3301352607506475e-01   1.4056386957902192e-01   1.4797722082151268e-01   1.5524615788981333e-01   1.6236335373369298e-01   1.6932157536019160e-01   1.7611368873760777e-01   1.8273267702061574e-01   1.8917168460389022e-01   1.9542410572508337e-01   2.0148369380235059e-01   2.0734493304937499e-01   2.1300233578906561e-01   2.1845525068671817e-01   2.2368608685295036e-01   2.2875947909424219e-01   2.3311945050278557e-01   6.0618998651851028e-05   9.5083328556871630e-03   1.9128149935182668e-02   2.8705736192479698e-02   3.8262230436272034e-02   4.7778311882484520e-02   5.7247391492513663e-02   6.6659632641297026e-02   7.6006303444713375e-02   8.5278473240349442e-02   9.4467312109990098e-02   1.0356399597119577e-01   1.1255973749211466e-01   1.2144579564075722e-01   1.3021349369572388e-01   1.3885423442817213e-01   1.4735951292211683e-01   1.5572092641361313e-01   1.6393018161861433e-01   1.7197910060824695e-01   1.7985962713899187e-01   1.8756383635578294e-01   1.9508395275920859e-01   2.0241238193519195e-01   2.0954176608408934e-01   2.1646506751065281e-01   2.2317567313598863e-01   2.2966764260510886e-01   2.3593519399640192e-01   2.4197633723399001e-01   2.4777519020044786e-01   2.5338527670754507e-01   2.5831835623949140e-01   1.4398687039943010e-05   1.0436502782204203e-02   2.0974978645926404e-02   3.1476226438757408e-02   4.1952866018364031e-02   5.2386352578680163e-02   6.2768565289018682e-02   7.3088646995527362e-02   8.3336768947388618e-02   9.3502983867420245e-02   1.0357749517703074e-01   1.1355056100543806e-01   1.2341251481519509e-01   1.3315376607921531e-01   1.4276481153972298e-01   1.5223624576423320e-01   1.6155877180943476e-01   1.7072321111810274e-01   1.7972051306742762e-01   1.8854176515341023e-01   1.9717820560028451e-01   2.0562124088733136e-01   2.1386247214241921e-01   2.2189373331475898e-01   2.2970714912851892e-01   2.3729520495515100e-01   2.4465084387582248e-01   2.5176760083711769e-01   2.5863931020091308e-01   2.6526257966918554e-01   2.7162338913449741e-01   2.7776385260756814e-01   2.8326794893221402e-01  -3.4108853576642506e-05   1.1354882412087408e-02   2.2801401314909955e-02   3.4215996834801934e-02   4.5602237238130706e-02   5.6942570977552093e-02   6.8227374884214639e-02   7.9444843817346109e-02   9.0584089441986509e-02   1.0163417123572162e-01   1.1258433546210324e-01   1.2342392560934495e-01   1.3414239643011311e-01   1.4472930902749379e-01   1.5517433691273261e-01   1.6546727277045689e-01   1.7559803714103497e-01   1.8555668815958362e-01   1.9533343274886542e-01   2.0491864006806307e-01   2.1430285866088591e-01   2.2347683908565882e-01   2.3243156484559038e-01   2.4115829216486295e-01   2.4964860556514268e-01   2.5789447167342994e-01   2.6588833175379872e-01   2.7362313337002880e-01   2.8109228329148173e-01   2.8829096976701435e-01   2.9520717390202217e-01   3.0187135651261077e-01   3.0794343161470278e-01  -8.4400997405909795e-05   1.2262541786233535e-02   2.4605690513913401e-02   3.6922504486939400e-02   4.9207042049037676e-02   6.1442912759460414e-02   7.3619000573336368e-02   8.5722610304891339e-02   9.7741829619441764e-02   1.0966475349397392e-01   1.2147968981297404e-01   1.3317508040117124e-01   1.4473951080421218e-01   1.5616170207768437e-01   1.6743051297929706e-01   1.7853494375410597e-01   1.8946414309885515e-01   2.0020741759845273e-01   2.1075424400148834e-01   2.2109428489971150e-01   2.3121740881787767e-01   2.4111371573860571e-01   2.5077356986438554e-01   2.6018763828301539e-01   2.6934694238057894e-01   2.7824289639642202e-01   2.8686740002582278e-01   2.9521277802874285e-01   3.0327199291903195e-01   3.1103882226192064e-01   3.1850336083644182e-01   3.2568423722392636e-01   3.3232025856844727e-01  -1.3595794990654481e-04   1.3158562687302724e-02   2.6386136896959449e-02   3.9593211726748352e-02   5.2763961158745626e-02   6.5883285771356423e-02   7.8938574450294258e-02   9.1916287383107809e-02   1.0480352015704600e-01   1.1758743378065779e-01   1.3025542203106963e-01   1.4279504499324427e-01   1.5519403546848742e-01   1.6744028874060407e-01   1.7952186178447305e-01   1.9142697467820732e-01   2.0314401609103841e-01   2.1466155232321313e-01   2.2596834020474416e-01   2.3705334416350929e-01   2.4790575803556258e-01   2.5851503197193387e-01   2.6887090547178383e-01   2.7896344383757121e-01   2.8878308546421333e-01   2.9832066742605334e-01   3.0756752267912313e-01   3.1651533643717145e-01   3.2515662567722486e-01   3.3348378126674960e-01   3.4148909291564911e-01   3.4917925196056843e-01   3.5637416069993616e-01  -1.8824686002338195e-04   1.4042038400041590e-02   2.8141053352197069e-02   4.2225601455791045e-02   5.6269686633864634e-02   7.0259597574719654e-02   8.4181220175305327e-02   9.8020205714273889e-02   1.1176268622788148e-01   1.2539491978779252e-01   1.3890341394602151e-01   1.5227487208192156e-01   1.6549619611802668e-01   1.7855447465503813e-01   1.9143697958764952e-01   2.0413116550891158e-01   2.1662467391684007e-01   2.2890534183148445e-01   2.4096121502049350e-01   2.5278056588897174e-01   2.6435191622435239e-01   2.7566406462740262e-01   2.8670611915237953e-01   2.9746753151175254e-01   3.0793814124804986e-01   3.1810819114393624e-01   3.2796843285949850e-01   3.3750990755947413e-01   3.4672469349677204e-01   3.5560382865757523e-01   3.6414184728077842e-01   3.7233348079806738e-01   3.8008117181709189e-01  -2.4072636435960236e-04   1.4912074397726368e-02   2.9868778643230450e-02   4.4817187818528247e-02   5.9720940999174042e-02   7.4567781084096882e-02   8.9342081209160720e-02   1.0402871247628404e-01   1.1861286990049701e-01   1.3307994036224727e-01   1.4741557614284134e-01   1.6160565315345954e-01   1.7563626870388951e-01   1.8949372769832298e-01   2.0316453664880929e-01   2.1663540126697176e-01   2.2989322958575234e-01   2.4292514023808820e-01   2.5571847591187757e-01   2.6826082177990485e-01   2.8054002878281753e-01   2.9254424123312128e-01   3.0426192899561566e-01   3.1568192000412154e-01   3.2679344274328664e-01   3.3758613432455387e-01   3.4805015762914276e-01   3.5817591287945039e-01   3.6795505014147661e-01   3.7737729574803014e-01   3.8643944784588935e-01   3.9512434407827951e-01   4.0341765556374820e-01  -2.9285135163420266e-04   1.5767789695808106e-02   3.1567681262845045e-02   4.7365525016749045e-02   6.3114491482178167e-02   7.8803813043076751e-02   9.4416341003473125e-02   1.0993619058494428e-01   1.2534764638813944e-01   1.4063525779142175e-01   1.5578385626365610e-01   1.7077852350199355e-01   1.8560458229182580e-01   2.0024757997500520e-01   2.1469327963934151e-01   2.2892765607083682e-01   2.4293689808807875e-01   2.5670741673866926e-01   2.7022585910106783e-01   2.8347912722391133e-01   2.9645440183976901e-01   3.0913917010961200e-01   3.2152125759504352e-01   3.3358885990547255e-01   3.4533058500418834e-01   3.5673545666551892e-01   3.6779304558205295e-01   3.7849311835896682e-01   3.8882690847654405e-01   3.9878287835491971e-01   4.0836008157571302e-01   4.1752962157763324e-01   4.2636033252092603e-01  -3.4407778852161083e-04   1.6608318849399888e-02   3.3236164059713823e-02   4.9868215869632297e-02   6.6447161963109277e-02   8.2963728027539679e-02   9.9399237149594075e-02   1.1573707124815132e-01   1.3196063391824095e-01   1.4805367470219000e-01   1.6400024334400121e-01   1.7978466485788178e-01   1.9539152102800897e-01   2.1080563016589948e-01   2.2601203531318556e-01   2.4099599891802279e-01   2.5574300492092933e-01   2.7023876736357333e-01   2.8446924487063574e-01   2.9842066025832259e-01   3.1207952473423733e-01   3.2543266587856989e-01   3.3846725973102643e-01   3.5117086237240414e-01   3.6353145343554710e-01   3.7553743745744217e-01   3.8717779100087274e-01   3.9844165586488894e-01   4.0931985974010859e-01   4.1979965510489953e-01   4.2988231755029949e-01   4.3952747275375098e-01   4.4888630723358491e-01  -3.9386745935045687e-04   1.7432814765443665e-02   3.4872670248451580e-02   5.2322921203997327e-02   6.9715843995689350e-02   8.7043629160089980e-02   1.0428607006528311e-01   1.2142583965643070e-01   1.3844549635224979e-01   1.5532803428675288e-01   1.7205676675813200e-01   1.8861530427087109e-01   2.0498752404351989e-01   2.2115754528101958e-01   2.3710971465719594e-01   2.5282860054229922e-01   2.6829899577723915e-01   2.8350592748522502e-01   2.9843467276257629e-01   3.1307077922440490e-01   3.2740008977434315e-01   3.4140877086645188e-01   3.5508334487916093e-01   3.6841072219038956e-01   3.8137824694303685e-01   3.9397369851982622e-01   4.0618545646696819e-01   4.1800204545839986e-01   4.2941389552874187e-01   4.4040710904828823e-01   4.5098512849521788e-01   4.6109645778314845e-01   4.7097309497863954e-01  -4.4169242902037466e-04   1.8240452722797555e-02   3.6475691607007622e-02   5.4727370922392174e-02   7.2917507380960631e-02   9.1039695332512910e-02   1.0907220523785269e-01   1.2699703221778966e-01   1.4479593669206992e-01   1.6245121207245108e-01   1.7994548832001583e-01   1.9726170823006911e-01   2.1438308269253034e-01   2.3129306152673343e-01   2.4797531743151632e-01   2.6441374135912921e-01   2.8059244744983031e-01   2.9649578515033698e-01   3.1210835678035603e-01   3.2741503929066029e-01   3.4240100957934816e-01   3.5705177286307432e-01   3.7135319515977960e-01   3.8529153595029753e-01   3.9885349667906145e-01   4.1202622411470885e-01   4.2479749457060983e-01   4.3715521916363898e-01   4.4908943311560434e-01   4.6058515311029447e-01   4.7164791506179166e-01   4.8221555943997096e-01   4.9259864812257437e-01  -4.8703904601285616e-04   1.9030436323764929e-02   3.8043779978564361e-02   5.7079377374284375e-02   7.6049209735481627e-02   9.4948182983319113e-02   1.1375306599164944e-01   1.3244522188283006e-01   1.5100567830164138e-01   1.6941609684751732e-01   1.8765848612979105e-01   2.0571517150895269e-01   2.2356873527646762e-01   2.4120198483789795e-01   2.5859793782735996e-01   2.7573982125749652e-01   2.9261108066653230e-01   3.0919539588821376e-01   3.2547670118529465e-01   3.4143920838063957e-01   3.5706743246774286e-01   3.7234621958166614e-01   3.8726077888162741e-01   4.0179671522059518e-01   4.1594007996998328e-01   4.2967737722539728e-01   4.4299576817564978e-01   4.5588254613114682e-01   4.6832734476369559e-01   4.8031416060620513e-01   4.9185053395395040e-01   5.0286420627080786e-01   5.1374138191720464e-01  -5.2941084066775558e-04   1.9802006584731330e-02   3.9575563560063330e-02   5.9376851097336543e-02   7.9108102680848197e-02   9.8765417682745341e-02   1.1832411068181556e-01   1.3776498554018404e-01   1.5706842911329530e-01   1.7621555790815097e-01   1.9518782919109132e-01   2.1396700117321066e-01   2.3253506053669576e-01   2.5087419271409467e-01   2.6896677291419635e-01   2.8679537277988842e-01   3.0434277621717659e-01   3.2159200018515266e-01   3.3852631792616916e-01   3.5512928338445943e-01   3.7138475655584852e-01   3.8727693014462689e-01   4.0279035948291753e-01   4.1790999384372501e-01   4.3262122782111656e-01   4.4690991007895925e-01   4.6076256715311614e-01   4.7416585800847150e-01   4.8710899154509774e-01   4.9957500303202673e-01   5.1157333230313795e-01   5.2302229818633739e-01   5.3438019955750948e-01  -5.6833065572565685e-04   2.0554456236710851e-02   4.1069769711528814e-02   6.1617817472773520e-02   8.2091428722284407e-02   1.0248776593503715e-01   1.2278078345357178e-01   1.4295084406442463e-01   1.6297782265882008e-01   1.8284239612481026e-01   2.0252554324901334e-01   2.2200849800602826e-01   2.4127267292319818e-01   2.6029964040951636e-01   2.7907113661083172e-01   2.9756908000872229e-01   3.1577559631932511e-01   3.3367304529473008e-01   3.5124404716829322e-01   3.6847150792522582e-01   3.8533864353900771e-01   4.0182900402733790e-01   4.1792649946378385e-01   4.3361542781967793e-01   4.4888052311326970e-01   4.6370696489946933e-01   4.7808061712440991e-01   4.9198747112980251e-01   5.0541626119068550e-01   5.1834909857954514e-01   5.3079719305837347e-01   5.4267023691672489e-01   5.5449451625216595e-01  -6.0333506990887490e-04   2.1287152002013171e-02   4.2525255295446297e-02   6.3800428767973746e