<VTKFile type="UnstructuredGrid" version="0.1" byte_order="LittleEndian">
<UnstructuredGrid>
<Piece NumberOfPoints="4225" NumberOfCells="8192">
<Points>
<DataArray type="Float64" NumberOfComponents="3" Format="ascii">  0.0000000000000000e+00  0.0000000000000000e+00  0.0000000000000000e+00   1.5625000000000000e-02  0.0000000000000000e+00  0.0000000000000000e+00   3.1250000000000000e-02  0.0000000000000000e+00  0.0000000000000000e+00   4.6875000000000000e-02  0.0000000000000000e+00  0.0000000000000000e+00   6.2500000000000000e-02  0.0000000000000000e+00  0.0000000000000000e+00   7.8125000000000000e-02  0.0000000000000000e+00  0.0000000000000000e+00   9.3750000000000000e-02  0.0000000000000000e+00  0.0000000000000000e+00   1.0937500000000000e-01  0.0000000000000000e+00  0.0000000000000000e+00   1.2500000000000000e-01  0.0000000000000000e+00  0.0000000000000000e+00   1.4062500000000000e-01  0.0000000000000000e+00  0.0000000000000000e+00   1.5625000000000000e-01  0.0000000000000000e+00  0.0000000000000000e+00   1.7187500000000000e-01  0.0000000000000000e+00  0.0000000000000000e+00   1.8750000000000000e-01  0.0000000000000000e+00  0.0000000000000000e+00   2.0312500000000000e-01  0.0000000000000000e+00  0.0000000000000000e+00   2.1875000000000000e-01  0.0000000000000000e+00  0.0000000000000000e+00   2.3437500000000000e-01  0.0000000000000000e+00  0.0000000000000000e+00   2.5000000000000000e-01  0.0000000000000000e+00  0.0000000000000000e+00   2.6562500000000000e-01  0.0000000000000000e+00  0.0000000000000000e+00   2.8125000000000000e-01  0.0000000000000000e+00  0.0000000000000000e+00   2.9687500000000000e-01  0.0000000000000000e+00  0.0000000000000000e+00   3.1250000000000000e-01  0.0000000000000000e+00  0.0000000000000000e+00   3.2812500000000000e-01  0.0000000000000000e+00  0.0000000000000000e+00   3.4375000000000000e-01  0.0000000000000000e+00  0.0000000000000000e+00   3.5937500000000000e-01  0.0000000000000000e+00  0.0000000000000000e+00   3.7500000000000000e-01  0.0000000000000000e+00  0.0000000000000000e+00   3.9062500000000000e-01  0.0000000000000000e+00  0.0000000000000000e+00   4.0625000000000000e-01  0.0000000000000000e+00  0.0000000000000000e+00   4.2187500000000000e-01  0.0000000000000000e+00  0.0000000000000000e+00   4.3750000000000000e-01  0.0000000000000000e+00  0.0000000000000000e+00   4.5312500000000000e-01  0.0000000000000000e+00  0.0000000000000000e+00   4.6875000000000000e-01  0.0000000000000000e+00  0.0000000000000000e+00   4.8437500000000000e-01  0.0000000000000000e+00  0.0000000000000000e+00   5.0000000000000000e-01  0.0000000000000000e+00  0.0000000000000000e+00   5.1562500000000000e-01  0.0000000000000000e+00  0.0000000000000000e+00   5.3125000000000000e-01  0.0000000000000000e+00  0.0000000000000000e+00   5.4687500000000000e-01  0.0000000000000000e+00  0.0000000000000000e+00   5.6250000000000000e-01  0.0000000000000000e+00  0.0000000000000000e+00   5.7812500000000000e-01  0.0000000000000000e+00  0.0000000000000000e+00   5.9375000000000000e-01  0.0000000000000000e+00  0.0000000000000000e+00   6.0937500000000000e-01  0.0000000000000000e+00  0.0000000000000000e+00   6.2500000000000000e-01  0.0000000000000000e+00  0.0000000000000000e+00   6.4062500000000000e-01  0.0000000000000000e+00  0.0000000000000000e+00   6.5625000000000000e-01  0.0000000000000000e+00  0.0000000000000000e+00   6.7187500000000000e-01  0.0000000000000000e+00  0.0000000000000000e+00   6.8750000000000000e-01  0.0000000000000000e+00  0.0000000000000000e+00   7.0312500000000000e-01  0.0000000000000000e+00  0.0000000000000000e+00   7.1875000000000000e-01  0.0000000000000000e+00  0.0000000000000000e+00   7.3437500000000000e-01  0.0000000000000000e+00  0.0000000000000000e+00   7.5000000000000000e-01  0.0000000000000000e+00  0.0000000000000000e+00   7.6562500000000000e-01  0.0000000000000000e+00  0.0000000000000000e+00   7.8125000000000000e-01  0.0000000000000000e+00  0.0000000000000000e+00   7.9687500000000000e-01  0.0000000000000000e+00  0.0000000000000000e+00   8.1250000000000000e-01  0.0000000000000000e+00  0.0000000000000000e+00   8.2812500000000000e-01  0.0000000000000000e+00  0.0000000000000000e+00   8.4375000000000000e-01  0.0000000000000000e+00  0.0000000000000000e+00   8.5937500000000000e-01  0.0000000000000000e+00  0.0000000000000000e+00   8.7500000000000000e-01  0.0000000000000000e+00  0.0000000000000000e+00   8.9062500000000000e-01  0.0000000000000000e+00  0.0000000000000000e+00   9.0625000000000000e-01  0.0000000000000000e+00  0.0000000000000000e+00   9.2187500000000000e-01  0.0000000000000000e+00  0.0000000000000000e+00   9.3750000000000000e-01  0.0000000000000000e+00  0.0000000000000000e+00   9.5312500000000000e-01  0.0000000000000000e+00  0.0000000000000000e+00   9.6875000000000000e-01  0.0000000000000000e+00  0.0000000000000000e+00   9.8437500000000000e-01  0.0000000000000000e+00  0.0000000000000000e+00   1.0000000000000000e+00  0.0000000000000000e+00  0.0000000000000000e+00   0.0000000000000000e+00  1.5625000000000000e-02  0.0000000000000000e+00   1.5625000000000000e-02  1.5625000000000000e-02  0.0000000000000000e+00   3.1250000000000000e-02  1.5625000000000000e-02  0.0000000000000000e+00   4.6875000000000000e-02  1.5625000000000000e-02  0.0000000000000000e+00   6.2500000000000000e-02  1.5625000000000000e-02  0.0000000000000000e+00   7.8125000000000000e-02  1.5625000000000000e-02  0.0000000000000000e+00   9.3750000000000000e-02  1.5625000000000000e-02  0.0000000000000000e+00   1.0937500000000000e-01  1.5625000000000000e-02  0.0000000000000000e+00   1.2500000000000000e-01  1.5625000000000000e-02  0.0000000000000000e+00   1.4062500000000000e-01  1.5625000000000000e-02  0.0000000000000000e+00   1.5625000000000000e-01  1.5625000000000000e-02  0.0000000000000000e+00   1.7187500000000000e-01  1.5625000000000000e-02  0.0000000000000000e+00   1.8750000000000000e-01  1.5625000000000000e-02  0.0000000000000000e+00   2.0312500000000000e-01  1.5625000000000000e-02  0.0000000000000000e+00   2.1875000000000000e-01  1.5625000000000000e-02  0.0000000000000000e+00   2.3437500000000000e-01  1.5625000000000000e-02  0.0000000000000000e+00   2.5000000000000000e-01  1.5625000000000000e-02  0.0000000000000000e+00   2.6562500000000000e-01  1.5625000000000000e-02  0.0000000000000000e+00   2.8125000000000000e-01  1.5625000000000000e-02  0.0000000000000000e+00   2.9687500000000000e-01  1.5625000000000000e-02  0.0000000000000000e+00   3.1250000000000000e-01  1.5625000000000000e-02  0.0000000000000000e+00   3.2812500000000000e-01  1.5625000000000000e-02  0.0000000000000000e+00   3.4375000000000000e-01  1.5625000000000000e-02  0.0000000000000000e+00   3.5937500000000000e-01  1.5625000000000000e-02  0.0000000000000000e+00   3.7500000000000000e-01  1.5625000000000000e-02  0.0000000000000000e+00   3.9062500000000000e-01  1.5625000000000000e-02  0.0000000000000000e+00   4.0625000000000000e-01  1.5625000000000000e-02  0.0000000000000000e+00   4.2187500000000000e-01  1.5625000000000000e-02  0.0000000000000000e+00   4.3750000000000000e-01  1.5625000000000000e-02  0.0000000000000000e+00   4.5312500000000000e-01  1.5625000000000000e-02  0.0000000000000000e+00   4.6875000000000000e-01  1.5625000000000000e-02  0.0000000000000000e+00   4.8437500000000000e-01  1.5625000000000000e-02  0.0000000000000000e+00   5.0000000000000000e-01  1.5625000000000000e-02  0.0000000000000000e+00   5.1562500000000000e-01  1.5625000000000000e-02  0.0000000000000000e+00   5.3125000000000000e-01  1.5625000000000000e-02  0.0000000000000000e+00   5.4687500000000000e-01  1.5625000000000000e-02  0.0000000000000000e+00   5.6250000000000000e-01  1.5625000000000000e-02  0.0000000000000000e+00   5.7812500000000000e-01  1.5625000000000000e-02  0.0000000000000000e+00   5.9375000000000000e-01  1.5625000000000000e-02  0.0000000000000000e+00   6.0937500000000000e-01  1.5625000000000000e-02  0.0000000000000000e+00   6.2500000000000000e-01  1.5625000000000000e-02  0.0000000000000000e+00   6.4062500000000000e-01  1.5625000000000000e-02  0.0000000000000000e+00   6.5625000000000000e-01  1.5625000000000000e-02  0.0000000000000000e+00   6.7187500000000000e-01  1.5625000000000000e-02  0.0000000000000000e+00   6.8750000000000000e-01  1.5625000000000000e-02  0.0000000000000000e+00   7.0312500000000000e-01  1.5625000000000000e-02  0.0000000000000000e+00   7.1875000000000000e-01  1.5625000000000000e-02  0.0000000000000000e+00   7.3437500000000000e-01  1.5625000000000000e-02  0.0000000000000000e+00   7.5000000000000000e-01  1.5625000000000000e-02  0.0000000000000000e+00   7.6562500000000000e-01  1.5625000000000000e-02  0.0000000000000000e+00   7.8125000000000000e-01  1.5625000000000000e-02  0.0000000000000000e+00   7.9687500000000000e-01  1.5625000000000000e-02  0.0000000000000000e+00   8.1250000000000000e-01  1.5625000000000000e-02  0.0000000000000000e+00   8.2812500000000000e-01  1.5625000000000000e-02  0.0000000000000000e+00   8.4375000000000000e-01  1.5625000000000000e-02  0.0000000000000000e+00   8.5937500000000000e-01  1.5625000000000000e-02  0.0000000000000000e+00   8.7500000000000000e-01  1.5625000000000000e-02  0.0000000000000000e+00   8.9062500000000000e-01  1.5625000000000000e-02  0.0000000000000000e+00   9.0625000000000000e-01  1.5625000000000000e-02  0.0000000000000000e+00   9.2187500000000000e-01  1.5625000000000000e-02  0.0000000000000000e+00   9.3750000000000000e-01  1.5625000000000000e-02  0.0000000000000000e+00   9.5312500000000000e-01  1.5625000000000000e-02  0.0000000000000000e+00   9.6875000000000000e-01  1.5625000000000000e-02  0.0000000000000000e+00   9.8437500000000000e-01  1.5625000000000000e-02  0.0000000000000000e+00   1.0000000000000000e+00  1.5625000000000000e-02  0.0000000000000000e+00   0.0000000000000000e+00  3.1250000000000000e-02  0.0000000000000000e+00   1.5625000000000000e-02  3.1250000000000000e-02  0.0000000000000000e+00   3.1250000000000000e-02  3.1250000000000000e-02  0.0000000000000000e+00   4.6875000000000000e-02  3.1250000000000000e-02  0.0000000000000000e+00  
[...]
<PointData Scalars="scalars">
<DataArray type="Float64" Name="Solution Component 0 - ux" Format="ascii">  1.5344526917081748e-05  -1.0231021888241090e-04  -1.1641791698415043e-04  -1.2143074541555686e-04  -1.2379930216480369e-04  -1.2505561537968046e-04  -1.2569080103302173e-04  -1.2594861619199158e-04  -1.2596535153870051e-04  -1.2581628732904519e-04  -1.2554384949262421e-04  -1.2517297026522391e-04  -1.2471899816862358e-04  -1.2419183835948530e-04  -1.2359819880163514e-04  -1.2294285289394654e-04  -1.2222937308702762e-04  -1.2146057030439902e-04  -1.2063876460510993e-04  -1.1976595623508653e-04  -1.1884393589823176e-04  -1.1787435749507472e-04  -1.1685878689783748e-04  -1.1579873457836978e-04  -1.1469567809839835e-04  -1.1355107730831346e-04  -1.1236638464873107e-04  -1.1114305191309100e-04  -1.0988253444081368e-04  -1.0858629368103149e-04  -1.0725579809916064e-04  -1.0589252302719653e-04  -1.0449795001437232e-04  -1.0307356505762491e-04  -1.0162085636746913e-04  -1.0014131197500757e-04  -9.8636416264884794e-05  -9.7107646469827679e-05  -9.5556468539471454e-05  -9.3984331947387438e-05  -9.2392664451883060e-05  -9.0782865117806303e-05  -8.9156296374423360e-05  -8.7514274172683664e-05  -8.5858053970583377e-05  -8.4188811373189367e-05  -8.2507611650924043e-05  -8.0815358485078012e-05  -7.9112700895424013e-05  -7.7399857631795519e-05  -7.5676274968446367e-05  -7.3939936511108054e-05  -7.2186012711859590e-05  -7.0404010173273735e-05  -6.8572600894233982e-05  -6.6647092788246217e-05  -6.4543835658515498e-05  -6.2074148963109360e-05  -5.8966575490641826e-05  -5.4303651542499828e-05  -4.7736762909325705e-05  -3.1831061583122324e-05  -1.7449962788213143e-05   6.1793884940968780e-05  -1.6717689479072844e-04   6.7596369990519540e-05   2.2076797459290591e-04   4.3271893985297671e-04   6.5478312155193750e-04   8.8625616976047833e-04   1.1220198176059998e-03   1.3600671443536180e-03   1.5993484042648835e-03   1.8392612768386473e-03   2.0794263029499131e-03   2.3195846276091760e-03   2.5595473909994335e-03   2.7991682687153311e-03   3.0383277416130925e-03   3.2769237482843058e-03   3.5148659527608934e-03   3.7520721272872991e-03   3.9884658097237326e-03   4.2239747506059543e-03   4.4585298619679303e-03   4.6920644927030165e-03   4.9245139208628419e-03   5.1558149933711933e-03   5.3859058675651533e-03   5.6147258244146460e-03   5.8422151331812581e-03   6.0683149535221033e-03   6.2929672652922578e-03   6.5161148193968151e-03   6.7377011047585677e-03   6.9576703281706851e-03   7.1759674044731920e-03   7.3925379556537933e-03   7.6073283177729998e-03   7.8202855550567624e-03   8.0313574813059927e-03   8.2404926888828816e-03   8.4476405858023070e-03   8.6527514427414687e-03   8.8557764515041840e-03   9.0566677979340218e-03   9.2553787537518993e-03   9.4518637924259769e-03   9.6460787384613274e-03   9.8379809619543301e-03   1.0027529637053362e-02   1.0214686092906818e-02   1.0399414300127507e-02   1.0581681561631501e-02   1.0761459515990720e-02   1.0938725627377967e-02   1.1113465443178852e-02   1.1285676049029412e-02   1.1455371472139772e-02   1.1622590823688673e-02   1.1787411591234913e-02   1.1949965678223628e-02   1.2110476113587270e-02   1.2269248230296485e-02   1.2426881493621252e-02   1.2583516603675808e-02   1.2741032756550634e-02   1.2888605367696589e-02   1.3043248886073064e-02   1.2980750924723816e-02   7.4927959765321494e-05   4.6639690439205463e-04   9.4486662768835847e-04   1.4148020151553726e-03   1.8882687683989484e-03   2.3645468595048964e-03   2.8430326267817013e-03   3.3228094072588381e-03   3.8032003430023297e-03   4.2837055341302388e-03   4.7639442716299520e-03   5.2436152656369917e-03   5.7224704133990263e-03   6.2002977393319069e-03   6.6769102511902130e-03   7.1521385782834087e-03   7.6258260414982975e-03   8.0978253036073627e-03   8.5679960601758101e-03   9.0362034253619952e-03   9.5023167889743618e-03   9.9662089977610984e-03   1.0427755763310554e-02   1.0886835230565921e-02   1.1343327661706870e-02   1.1797115204395714e-02   1.2248081722263852e-02   1.2696112672183141e-02   1.3141095017381046e-02   1.3582917168219081e-02   1.4021468945267734e-02   1.4456641560336193e-02   1.4888327612747505e-02   1.5316421099228577e-02   1.5740817436059720e-02   1.6161413493362541e-02   1.6578107641917337e-02   1.6990799813272121e-02   1.7399391575276819e-02   1.7803786225643298e-02   1.8203888907384155e-02   1.8599606752195963e-02   1.8990849058974645e-02   1.9377527518943768e-02   1.9759556502448167e-02   2.0136853428793889e-02   2.0509339250019305e-02   2.0876939090837581e-02   2.1239583105365945e-02   2.1597207631693812e-02   2.1949756750902945e-02   2.2297184379267851e-02   2.2639456993566020e-02   2.2976557059451719e-02   2.3308486580422574e-02   2.3635270528369900e-02   2.3956952671633416e-02   2.4273592371197347e-02   2.4585173463318594e-02   2.4891645435396258e-02   2.5191811903222200e-02   2.5485370247694757e-02   2.5760015689438528e-02   2.6041094616725855e-02   2.6116941679440186e-02   7.5751956877735197e-05   7.0683904562030475e-04   1.4412672491804482e-03   2.1598303713187307e-03   2.8799069888549296e-03   3.6001737341599996e-03   4.3211907877750699e-03   5.0426925386693310e-03   5.7642959901397584e-03   6.4855800041767270e-03   7.2061550800702678e-03   7.9256740182426528e-03   8.6438272517144529e-03   9.3603354455766077e-03   1.0074942697918443e-02   1.0787411076708433e-02   1.1497516454040246e-02   1.2205045399688660e-02   1.2909792884649308e-02   1.3611560586430833e-02   1.4310155636668745e-02   1.5005389692625817e-02   1.5697078246811703e-02   1.6385040112297650e-02   1.7069097038686476e-02   1.7749073426247632e-02   1.8424796114242671e-02   1.9096094226178351e-02   1.9762799059280092e-02   2.0424744008671510e-02   2.1081764519579448e-02   2.1733698062449701e-02   2.2380384127283409e-02   2.3021664235113471e-02   2.3657381964711240e-02   2.4287382993966208e-02   2.4911515156113662e-02   2.5529628511116387e-02   2.6141575433998126e-02   2.6747210722428246e-02   2.7346391726467689e-02   2.7938978505689618e-02   2.8524834018882120e-02   2.9103824354661807e-02   2.9675819012844287e-02   3.0240691248356235e-02   3.0798318492266972e-02   3.1348582863653933e-02   3.1891371782487063e-02   3.2426578676423054e-02   3.2954103733861234e-02   3.3473854564187146e-02   3.3985746405861793e-02   3.4489701179519987e-02   3.4985643557772804e-02   3.5473491853524372e-02   3.5953133518979531e-02   3.6424389808042523e-02   3.6886879710802838e-02   3.7340019429628370e-02   3.7782022387247198e-02   3.8212610730999227e-02   3.8621978958389432e-02   3.9040813919240171e-02   3.9254543700146444e-02   7.5071645583174620e-05   9.4885661246943312e-04   1.9317554768308986e-03   2.8977975071975770e-03   3.8645265314634211e-03   4.8295552223967262e-03   5.7941331936664170e-03   6.7582226210437506e-03   7.7216463395423053e-03   8.6841013328595885e-03   9.6452468235387022e-03   1.0604735503206552e-02   1.1562229242937073e-02   1.2517404344304144e-02   1.3469951979085406e-02   1.4419576807810388e-02   1.5365995106344451e-02   1.6308932942061375e-02   1.7248124590452801e-02   1.8183311232163026e-02   1.9114239911138781e-02   2.0040662715044889e-02   2.0962336137274249e-02   2.1879020584036138e-02   2.2790479996070763e-02   2.3696481560794312e-02   2.4596795495490733e-02   2.5491194887285819e-02   2.6379455577261918e-02   2.7261356081294395e-02   2.8136677540073606e-02   2.9005203693450055e-02   2.9866720875271733e-02   3.0721018026273160e-02   3.1567886722727381e-02   3.2407121219806038e-02   3.3238518509265784e-02   3.4061878390894300e-02   3.4877003558489626e-02   3.5683699701062381e-02   3.6481775620019183e-02   3.7271043364291045e-02   3.8051318383756104e-02   3.8822419702109534e-02   3.9584170107766006e-02   4.0336396357480382e-02   4.1078929380477872e-02   4.1811604455054871e-02   4.2534261302567183e-02   4.3246743990309457e-02   4.3948900440488679e-02   4.4640581174071242e-02   4.5321636600521242e-02   4.5991911717769673e-02   4.6651235942349545e-02   4.7299405623077308e-02   4.7936150009834325e-02   4.8561089262928424e-02   4.9173612426737401e-02   4.9772953393678307e-02   5.0357453371117397e-02   5.0927690016024603e-02   5.1475799426807654e-02   5.2033264477630896e-02   5.2385672482809044e-02   7.3780895575426293e-05   1.1917487247693087e-03   2.4196992020844767e-03   3.6316210862463280e-03   4.8440930748266820e-03   6.0538628339993697e-03   7.2622810744322327e-03   8.4692861997244292e-03   9.6748217697776567e-03   1.0878661178026638e-02   1.2080504470549990e-02   1.3280013466854102e-02   1.4476835756634030e-02   1.5670616883555335e-02   1.6861006385310223e-02   1.8047660386515837e-02   1.9230242371842239e-02   2.0408423077160200e-02   2.1581880004476046e-02   2.2750296819324802e-02   2.3913362755105489e-02   2.5070772078236287e-02   2.6222223632370867e-02   2.7367420462696114e-02   2.8506069513423552e-02   2.9637881389415224e-02   3.0762570172276876e-02   3.1879853282085195e-02   3.2989451377181546e-02   3.4091088285587393e-02   3.5184490962959156e-02   3.6269389472694445e-02   3.7345516984740312e-02   3.8412609790857477e-02   3.9470407333666135e-02   4.0518652248130824e-02   4.1557090414184691e-02   4.2585471018877989e-02   4.3603546627285612e-02   4.4611073260489603e-02   4.5607810478346160e-02   4.6593521464461114e-02   4.7567973107435262e-02   4.8530936070252849e-02   4.9482184833340527e-02   5.0421497686954801e-02   5.1348656633339075e-02   5.2263447131720722e-02   5.3165657576472854e-02   5.4055078326407255e-02   5.4931499989013269e-02   5.5794710485279335e-02   5.6644490130314792e-02   5.7480603640537122e-02   5.8302787205306815e-02   5.9110729441471041e-02   5.9904040488753182e-02   6.0682225193079767e-02   6.1444606265856877e-02   6.2190492178628820e-02   6.2918603383756835e-02   6.3630217070709802e-02   6.4318351055029907e-02   6.5013935059252459e-02   6.5503200276282772e-02   7.2063220420106664e-05   1.4347665091303614e-03   2.9063895606565634e-03   4.3629283265369575e-03   5.8201052694036130e-03   7.2740967833294775e-03   8.7261071828439989e-03   1.0175957605697714e-02   1.1623605873305475e-02   1.3068833664468600e-02   1.4511352282854545e-02   1.5950822262240500e-02   1.7386876082620972e-02   1.8819132068490431e-02   2.0247203184939746e-02   2.1670702155143828e-02   2.3089244274826580e-02   2.4502448840767025e-02   2.5909939776479537e-02   2.7311345814016751e-02   2.8706300445975951e-02   3.0094441771189036e-02   3.1475412303345121e-02   3.2848858779533210e-02   3.4214431986866342e-02   3.5571786615215907e-02   3.6920581138273220e-02   3.8260477721857790e-02   3.9591142157581763e-02   4.0912243818851522e-02   4.2223455636588927e-02   4.3524454091877933e-02   4.4814919222876351e-02   4.6094534644222175e-02   4.7362987576209124e-02   4.8619968882004289e-02   4.9865173110847261e-02   5.1098298544410010e-02   5.2319047243696640e-02   5.3527125092465475e-02   5.4722241831371803e-02   5.5904111075684701e-02   5.7072450304161949e-02   5.8226980802513824e-02   5.9367427535265284e-02   6.0493518906366062e-02   6.1604986349140252e-02   6.2701563654185832e-02   6.3782985898151720e-02   6.4848987766613075e-02   6.5899300967608265e-02   6.6933650304451253e-02   6.7951747806018772e-02   6.8953284239717555e-02   6.9937917077689940e-02   7.0905255566805228e-02   7.1854840757566832e-02   7.2786141430876861e-02   7.3698519548098113e-02   7.4591448661026627e-02   7.5463988799842105e-02   7.6317782350636007e-02   7.7146187950427034e-02   7.7979263343358765e-02   7.8605205711037920e-02   6.9975688147168270e-05   1.6776046450233462e-03   3.3921565154862734e-03   5.0923465587955404e-03   6.7932870981583160e-03   8.4908273994109447e-03   1.0185952181469848e-02   1.1878331260530946e-02   1.3567863789504522e-02   1.5254293648728377e-02   1.6937313340218668e-02   1.8616563766001071e-02   2.0291653286690078e-02   2.1962169793615965e-02   2.3627689658142676e-02   2.5287783741114823e-02   2.6942021310777022e-02   2.8589972501250911e-02   3.0231209800013085e-02   3.1865308910653166e-02   3.3491849225668738e-02   3.5110414062821338e-02   3.6720590763938049e-02   3.8321970717872036e-02   3.9914149345509096e-02   4.1496726069704677e-02   4.3069304283326074e-02   4.4631491322124336e-02   4.6182898446987142e-02   4.7723140835561971e-02   4.9251837584504445e-02   5.0768611720706854e-02   5.2273090220587085e-02   5.3764904035971353e-02   5.5243688124257499e-02   5.6709081480688768e-02   5.8160727170211687e-02   5.9598272354828806e-02   6.1021368312364752e-02   6.2429670440205844e-02   6.3822838235457771e-02   6.5200535240302893e-02   6.6562428935330403e-02   6.7908190558027520e-02   6.9237494812881453e-02   7.0550019425187446e-02   7.1845444471256584e-02   7.3123451388637309e-02   7.4383721533355290e-02   7.5625934101905212e-02   7.6849763181747868e-02   7.8054873648024201e-02   7.9240915603840459e-02   8.0407517241226176e-02   8.1554276160424627e-02   8.2680751259539317e-02   8.3786455141408811e-02   8.4870868805210956e-02   8.5933431842469349e-02   8.6973770462250646e-02   8.7991167627300707e-02   8.8987393222860658e-02   8.9955938515885209e-02   9.0925918312866630e-02   9.1688414695817427e-02   6.7546505974700648e-05   1.9201259159376150e-03   3.8770104842057078e-03   5.8200913753403199e-03   7.7639807574669591e-03   9.7043605007245196e-03   1.1642003910861140e-02   1.3576433061023425e-02   1.5507454325548656e-02   1.7434746140243262e-02   1.9357956786071311e-02   2.1276689593417147e-02   2.3190517601313212e-02   2.5098991847589666e-02   2.7001648964844790e-02   2.8898016879006155e-02   3.0787618967973492e-02   3.2669976979768540e-02   3.4544613029338034e-02   3.6411050936303917e-02   3.8268817105678553e-02   4.0117441098870957e-02   4.1956455999477310e-02   4.3785398645909072e-02   4.5603809779341108e-02   4.7411234139639782e-02   4.9207220530381547e-02   5.0991321866724212e-02   5.2763095214443938e-02   5.4522101825515458e-02   5.6267907172702990e-02   5.8000080984647324e-02   5.9718197281163378e-02   6.1421834408301845e-02   6.3110575071196634e-02   6.4784006362487420e-02   6.6441719783304598e-02   6.8083311251903450e-02   6.9708381094700927e-02   7.1316534011661839e-02   7.2907379005438019e-02   7.4480529260581615e-02   7.6035601953059737e-02   7.7572217964425982e-02   7.9090001465264875e-02   8.0588579319950046e-02   8.2067580249855845e-02   8.3526633671914957e-02   8.4965368109376535e-02   8.6383409051794424e-02   8.7780376137562732e-02   8.9155879567141313e-02   9.0509515758442308e-02   9.1840862598337306e-02   9.3149474993476242e-02   9.4434883499092820e-02   9.5696596396435699e-02   9.6934125025789228e-02   9.8146982708611594e-02   9.9334900389585826e-02   1.0049728193477923e-01   1.0163588949769149e-01   1.0274428018499686e-01   1.0385060688575541e-01   1.0474961833536216e-01   6.4793873323764422e-05   2.1622405378105649e-03   4.3608753522110895e-03   6.5461817671169324e-03   8.7322792426717880e-03   1.0914784935124306e-02   1.3094293903609553e-02   1.5270196627375604e-02   1.7442195462478455e-02   1.9609889195916982e-02   2.1772865154235422e-02   2.3930675573619963e-02   2.6082847906363643e-02   2.8228889225584298e-02   3.0368291946361353e-02   3.2500538513287998e-02   3.4625105193167638e-02   3.6741464984497603e-02   3.8849089787244058e-02   4.0947451986561537e-02   4.3036025592448963e-02   4.5114287052492430e-02   4.7181715829450722e-02   4.9237794812576001e-02   5.1282010612852896e-02   5.3313853778429635e-02   5.5332818955596247e-02   5.7338405013096616e-02   5.9330115141370279e-02   6.1307456935486365e-02   6.3269942465828774e-02   6.5217088340308607e-02   6.7148415758602614e-02   6.9063450559169515e-02   7.0961723257213075e-02   7.2842769071691987e-02   7.4706127938098527e-02   7.6551344501733676e-02   7.8377968085601601e-02   8.0185552624110340e-02   8.1973656551183022e-02   8.3741842628440727e-02   8.5489677693606728e-02   8.7216732304459629e-02   8.8922580246289809e-02   9.0606797862131036e-02   9.2268963157176268e-02   9.3908654620177959e-02   9.5525449703317319e-02   9.7118922911108907e-02   9.8688643487866601e-02   1.0023417278501831e-01   1.0175506156056546e-01   1.0325084785259551e-01   1.0472105639930908e-01   1.0616520234141522e-01   1.0758279900055255e-01   1.0897338671809219e-01   1.1033653113264789e-01   1.1167201912387957e-01   1.1297930560573884e-01   1.1426007361079406e-01   1.1550793777898233e-01   1.1675008313996366e-01   1.1778558035367193e-01   6.1731632552361384e-05   2.4038744498173195e-03   4.8436504931407068e-03   7.2705405022639334e-03   9.6981356785202019e-03   1.2122053475548964e-02   1.4542740576910467e-02   1.6959474345435616e-02   1.9371854530177403e-02   2.1779395473225324e-02   2.4181614429185271e-02   2.6578003471284813e-02   2.8968036384771207e-02   3.1351169966425507e-02   3.3726847845991698e-02   3.6094503897460155e-02   3.8453565346545961e-02   4.0803455362731292e-02   4.3143595143648558e-02   4.5473405545328881e-02   4.7792308335060200e-02   5.0099727143584162e-02   5.2395088185060487e-02   5.4677820801616539e-02   5.6947357876901174e-02   5.9203136153489655e-02   6.1444596479732709e-02   6.3671184005214737e-02   6.5882348338369173e-02   6.8077543676119623e-02   7.0256228911922278e-02   7.2417867726472254e-02   7.4561928663132090e-02   7.6687885189259702e-02   7.8795215742234498e-02   8.0883403758516090e-02   8.2951937682615356e-02   8.5000310950782865e-02   8.7028021943485356e-02   8.9034573898138236e-02   9.1019474770961867e-02   9.2982237034960044e-02   9.4922377396163604e-02   9.6839416407776713e-02   9.8732877957484574e-02   1.0060228859935536e-01   1.0244717670174498e-01   1.0426707138528334e-01   1.0606150123994082e-01   1.0782999284106316e-01   1.0957206914941352e-01   1.1128724799744776e-01   1.1297504104551120e-01   1.1463495393936347e-01   1.1626648859774345e-01   1.1786914992238513e-01   1.1944245585951328e-01   1.2098596524693964e-01   1.2249927164341345e-01   1.2398217941220256e-01   1.2543415152199966e-01   1.2685675634314694e-01   1.2824368246763390e-01   1.2962113960209740e-01   1.3079309696800809e-01   5.8371672805516636e-05   2.6449604550357439e-03   5.3252265832672997e-03   7.9930440752294957e-03   1.0661425887245812e-02   1.3326031225425038e-02   1.5987179004331165e-02   1.8644050620612498e-02   2.1296149704739090e-02   2.3942906574806109e-02   2.6583764556275601e-02   2.9218150276832371e-02   3.1845478304274880e-02   3.4465150260837782e-02   3.7076557011641205e-02   3.9679080851948649e-02   4.2272097831688650e-02   4.4854979871961749e-02   4.7427096600807364e-02   4.9987816884397934e-02   5.2536510073850025e-02   5.5072547004360824e-02   5.7595300788851611e-02   6.0104147445933336e-02   6.2598466397013275e-02   6.5077640861808755e-02   6.7541058175229915e-02   6.9988110043839674e-02   7.2418192755660402e-02   7.4830707353256448e-02   7.7225059777573310e-02   7.9600660987276528e-02   8.1956927056454992e-02   8.4293279252383072e-02   8.6609144092623852e-02   8.8903953380294845e-02   9.1177144214743003e-02   9.3428158972967870e-02   9.5656445256462302e-02   9.7861455795886843e-02   1.0004264830406667e-01   1.0219948526676970e-01   1.0433143365742896e-01   1.0643796456171570e-01   1.0851855269688565e-01   1.1057267581167837e-01   1.1259981395956027e-01   1.1459944864938357e-01   1.1657106190363005e-01   1.1851413529687455e-01   1.2042814912124460e-01   1.2231258193993463e-01   1.2416691094286998e-01   1.2599061378014184e-01   1.2778317258917707e-01   1.2954408195002851e-01   1.3127285896334967e-01   1.3296906794099761e-01   1.3463230917917515e-01   1.3626237747918957e-01   1.3785871938354582e-01   1.3942277257161484e-01   1.4094832531963666e-01   1.4246059804609729e-01   1.4376897620951806e-01   5.4725100187161622e-05   2.8854348400236944e-03   5.8054907199649800e-03   8.7135462815986914e-03   1.1621982340517097e-02   1.4526528007986400e-02   1.7427386934689960e-02   2.0323658572521146e-02   2.3214757873255734e-02   2.6100034129349890e-02   2.8978856174970247e-02   3.1850582726894734e-02   3.4714565773913575e-02   3.7570148327453499e-02   4.0416665377092667e-02   4.3253445059960809e