<VTKFile type="UnstructuredGrid" version="0.1" byte_order="LittleEndian">
<UnstructuredGrid>
<Piece NumberOfPoints="289" NumberOfCells="512">
<Points>
<DataArray type="Float64" NumberOfComponents="3" Format="ascii">  0.0000000000000000e+00  0.0000000000000000e+00  0.0000000000000000e+00   6.2500000000000000e-02  0.0000000000000000e+00  0.0000000000000000e+00   1.2500000000000000e-01  0.0000000000000000e+00  0.0000000000000000e+00   1.8750000000000000e-01  0.0000000000000000e+00  0.0000000000000000e+00   2.5000000000000000e-01  0.0000000000000000e+00  0.0000000000000000e+00   3.1250000000000000e-01  0.0000000000000000e+00  0.0000000000000000e+00   3.7500000000000000e-01  0.0000000000000000e+00  0.0000000000000000e+00   4.3750000000000000e-01  0.0000000000000000e+00  0.0000000000000000e+00   5.0000000000000000e-01  0.0000000000000000e+00  0.0000000000000000e+00   5.6250000000000000e-01  0.0000000000000000e+00  0.0000000000000000e+00   6.2500000000000000e-01  0.0000000000000000e+00  0.0000000000000000e+00   6.8750000000000000e-01  0.0000000000000000e+00  0.0000000000000000e+00   7.5000000000000000e-01  0.0000000000000000e+00  0.0000000000000000e+00   8.1250000000000000e-01  0.0000000000000000e+00  0.0000000000000000e+00   8.7500000000000000e-01  0.0000000000000000e+00  0.0000000000000000e+00   9.3750000000000000e-01  0.0000000000000000e+00  0.0000000000000000e+00   1.0000000000000000e+00  0.0000000000000000e+00  0.0000000000000000e+00   0.0000000000000000e+00  6.2500000000000000e-02  0.0000000000000000e+00   6.2500000000000000e-02  6.2500000000000000e-02  0.0000000000000000e+00   1.2500000000000000e-01  6.2500000000000000e-02  0.0000000000000000e+00   1.8750000000000000e-01  6.2500000000000000e-02  0.0000000000000000e+00   2.5000000000000000e-01  6.2500000000000000e-02  0.0000000000000000e+00   3.1250000000000000e-01  6.2500000000000000e-02  0.0000000000000000e+00   3.7500000000000000e-01  6.2500000000000000e-02  0.0000000000000000e+00   4.3750000000000000e-01  6.2500000000000000e-02  0.0000000000000000e+00   5.0000000000000000e-01  6.2500000000000000e-02  0.0000000000000000e+00   5.6250000000000000e-01  6.2500000000000000e-02  0.0000000000000000e+00   6.2500000000000000e-01  6.2500000000000000e-02  0.0000000000000000e+00   6.8750000000000000e-01  6.2500000000000000e-02  0.0000000000000000e+00   7.5000000000000000e-01  6.2500000000000000e-02  0.0000000000000000e+00   8.1250000000000000e-01  6.2500000000000000e-02  0.0000000000000000e+00   8.7500000000000000e-01  6.2500000000000000e-02  0.0000000000000000e+00   9.3750000000000000e-01  6.2500000000000000e-02  0.0000000000000000e+00   1.0000000000000000e+00  6.2500000000000000e-02  0.0000000000000000e+00   0.0000000000000000e+00  1.2500000000000000e-01  0.0000000000000000e+00   6.2500000000000000e-02  1.2500000000000000e-01  0.0000000000000000e+00   1.2500000000000000e-01  1.2500000000000000e-01  0.0000000000000000e+00   1.8750000000000000e-01  1.2500000000000000e-01  0.0000000000000000e+00   2.5000000000000000e-01  1.2500000000000000e-01  0.0000000000000000e+00   3.1250000000000000e-01  1.2500000000000000e-01  0.0000000000000000e+00   3.7500000000000000e-01  1.2500000000000000e-01  0.0000000000000000e+00   4.3750000000000000e-01  1.2500000000000000e-01  0.0000000000000000e+00   5.0000000000000000e-01  1.2500000000000000e-01  0.0000000000000000e+00   5.6250000000000000e-01  1.2500000000000000e-01  0.0000000000000000e+00   6.2500000000000000e-01  1.2500000000000000e-01  0.0000000000000000e+00   6.8750000000000000e-01  1.2500000000000000e-01  0.0000000000000000e+00   7.5000000000000000e-01  1.2500000000000000e-01  0.0000000000000000e+00   8.1250000000000000e-01  1.2500000000000000e-01  0.0000000000000000e+00   8.7500000000000000e-01  1.2500000000000000e-01  0.0000000000000000e+00   9.3750000000000000e-01  1.2500000000000000e-01  0.0000000000000000e+00   1.0000000000000000e+00  1.2500000000000000e-01  0.0000000000000000e+00   0.0000000000000000e+00  1.8750000000000000e-01  0.0000000000000000e+00   6.2500000000000000e-02  1.8750000000000000e-01  0.0000000000000000e+00   1.2500000000000000e-01  1.8750000000000000e-01  0.0000000000000000e+00   1.8750000000000000e-01  1.8750000000000000e-01  0.0000000000000000e+00   2.5000000000000000e-01  1.8750000000000000e-01  0.0000000000000000e+00   3.1250000000000000e-01  1.8750000000000000e-01  0.0000000000000000e+00   3.7500000000000000e-01  1.8750000000000000e-01  0.0000000000000000e+00   4.3750000000000000e-01  1.8750000000000000e-01  0.0000000000000000e+00   5.0000000000000000e-01  1.8750000000000000e-01  0.0000000000000000e+00   5.6250000000000000e-01  1.8750000000000000e-01  0.0000000000000000e+00   6.2500000000000000e-01  1.8750000000000000e-01  0.0000000000000000e+00   6.8750000000000000e-01  1.8750000000000000e-01  0.0000000000000000e+00   7.5000000000000000e-01  1.8750000000000000e-01  0.0000000000000000e+00   8.1250000000000000e-01  1.8750000000000000e-01  0.0000000000000000e+00   8.7500000000000000e-01  1.8750000000000000e-01  0.0000000000000000e+00   9.3750000000000000e-01  1.8750000000000000e-01  0.0000000000000000e+00   1.0000000000000000e+00  1.8750000000000000e-01  0.0000000000000000e+00   0.0000000000000000e+00  2.5000000000000000e-01  0.0000000000000000e+00   6.2500000000000000e-02  2.5000000000000000e-01  0.0000000000000000e+00   1.2500000000000000e-01  2.5000000000000000e-01  0.0000000000000000e+00   1.8750000000000000e-01  2.5000000000000000e-01  0.0000000000000000e+00   2.5000000000000000e-01  2.5000000000000000e-01  0.0000000000000000e+00   3.1250000000000000e-01  2.5000000000000000e-01  0.0000000000000000e+00   3.7500000000000000e-01  2.5000000000000000e-01  0.0000000000000000e+00   4.3750000000000000e-01  2.5000000000000000e-01  0.0000000000000000e+00   5.0000000000000000e-01  2.5000000000000000e-01  0.0000000000000000e+00   5.6250000000000000e-01  2.5000000000000000e-01  0.0000000000000000e+00   6.2500000000000000e-01  2.5000000000000000e-01  0.0000000000000000e+00   6.8750000000000000e-01  2.5000000000000000e-01  0.0000000000000000e+00   7.5000000000000000e-01  2.5000000000000000e-01  0.0000000000000000e+00   8.1250000000000000e-01  2.5000000000000000e-01  0.0000000000000000e+00   8.7500000000000000e-01  2.5000000000000000e-01  0.0000000000000000e+00   9.3750000000000000e-01  2.5000000000000000e-01  0.0000000000000000e+00   1.0000000000000000e+00  2.5000000000000000e-01  0.0000000000000000e+00   0.0000000000000000e+00  3.1250000000000000e-01  0.0000000000000000e+00   6.2500000000000000e-02  3.1250000000000000e-01  0.0000000000000000e+00   1.2500000000000000e-01  3.1250000000000000e-01  0.0000000000000000e+00   1.8750000000000000e-01  3.1250000000000000e-01  0.0000000000000000e+00   2.5000000000000000e-01  3.1250000000000000e-01  0.0000000000000000e+00   3.1250000000000000e-01  3.1250000000000000e-01  0.0000000000000000e+00   3.7500000000000000e-01  3.1250000000000000e-01  0.0000000000000000e+00   4.3750000000000000e-01  3.1250000000000000e-01  0.0000000000000000e+00   5.0000000000000000e-01  3.1250000000000000e-01  0.0000000000000000e+00   5.6250000000000000e-01  3.1250000000000000e-01  0.0000000000000000e+00   6.2500000000000000e-01  3.1250000000000000e-01  0.0000000000000000e+00   6.8750000000000000e-01  3.1250000000000000e-01  0.0000000000000000e+00   7.5000000000000000e-01  3.1250000000000000e-01  0.0000000000000000e+00   8.1250000000000000e-01  3.1250000000000000e-01  0.0000000000000000e+00   8.7500000000000000e-01  3.1250000000000000e-01  0.0000000000000000e+00   9.3750000000000000e-01  3.1250000000000000e-01  0.0000000000000000e+00   1.0000000000000000e+00  3.1250000000000000e-01  0.0000000000000000e+00   0.0000000000000000e+00  3.7500000000000000e-01  0.0000000000000000e+00   6.2500000000000000e-02  3.7500000000000000e-01  0.0000000000000000e+00   1.2500000000000000e-01  3.7500000000000000e-01  0.0000000000000000e+00   1.8750000000000000e-01  3.7500000000000000e-01  0.0000000000000000e+00   2.5000000000000000e-01  3.7500000000000000e-01  0.0000000000000000e+00   3.1250000000000000e-01  3.7500000000000000e-01  0.0000000000000000e+00   3.7500000000000000e-01  3.7500000000000000e-01  0.0000000000000000e+00   4.3750000000000000e-01  3.7500000000000000e-01  0.0000000000000000e+00   5.0000000000000000e-01  3.7500000000000000e-01  0.0000000000000000e+00   5.6250000000000000e-01  3.7500000000000000e-01  0.0000000000000000e+00   6.2500000000000000e-01  3.7500000000000000e-01  0.0000000000000000e+00   6.8750000000000000e-01  3.7500000000000000e-01  0.0000000000000000e+00   7.5000000000000000e-01  3.7500000000000000e-01  0.0000000000000000e+00   8.1250000000000000e-01  3.7500000000000000e-01  0.0000000000000000e+00   8.7500000000000000e-01  3.7500000000000000e-01  0.0000000000000000e+00   9.3750000000000000e-01  3.7500000000000000e-01  0.0000000000000000e+00   1.0000000000000000e+00  3.7500000000000000e-01  0.0000000000000000e+00   0.0000000000000000e+00  4.3750000000000000e-01  0.0000000000000000e+00   6.2500000000000000e-02  4.3750000000000000e-01  0.0000000000000000e+00   1.2500000000000000e-01  4.3750000000000000e-01  0.0000000000000000e+00   1.8750000000000000e-01  4.3750000000000000e-01  0.0000000000000000e+00   2.5000000000000000e-01  4.3750000000000000e-01  0.0000000000000000e+00   3.1250000000000000e-01  4.3750000000000000e-01  0.0000000000000000e+00   3.7500000000000000e-01  4.3750000000000000e-01  0.0000000000000000e+00   4.3750000000000000e-01  4.3750000000000000e-01  0.0000000000000000e+00   5.0000000000000000e-01  4.3750000000000000e-01  0.0000000000000000e+00   5.6250000000000000e-01  4.3750000000000000e-01  0.0000000000000000e+00   6.2500000000000000e-01  4.3750000000000000e-01  0.0000000000000000e+00   6.8750000000000000e-01  4.3750000000000000e-01  0.0000000000000000e+00   7.5000000000000000e-01  4.3750000000000000e-01  0.0000000000000000e+00   8.1250000000000000e-01  4.3750000000000000e-01  0.0000000000000000e+00   8.7500000000000000e-01  4.3750000000000000e-01  0.0000000000000000e+00   9
[...]
<PointData Scalars="scalars">
<DataArray type="Float64" Name="Solution Component 0 - ux" Format="ascii">  1.6973193045626456e-04  -1.6475253643224430e-03  -1.8758811420353408e-03  -1.9413804434654778e-03  -1.9471789109085551e-03  -1.9186566026197247e-03  -1.8649815791543665e-03  -1.7912731394248566e-03  -1.7003326641982894e-03  -1.5925212831423079e-03  -1.4656429113349811e-03  -1.3087335299726058e-03  -1.1137590140884155e-03  -7.7431392493470467e-04  -4.3887150803299362e-04   9.0272257427085321e-04  -2.6394973216352221e-03   9.8624987254148028e-04   3.5593160142144966e-03   6.9498812789367953e-03   1.0491105271820124e-02   1.4152067278746258e-02   1.7841134387879314e-02   2.1512866829898974e-02   2.5137268718706487e-02   2.8692868764864727e-02   3.2164028923255081e-02   3.5539936399994740e-02   3.8815734243454532e-02   4.1985218435168489e-02   4.5060547132928612e-02   4.7882905553482180e-02   5.0664726981018059e-02   4.9957824649306072e-02   9.7716434749913752e-04   7.4783286662940922e-03   1.5124794485480467e-02   2.2597743558574770e-02   3.0049550327392201e-02   3.7446715460938598e-02   4.4752372744246441e-02   5.1925618740765532e-02   5.8930709770250098e-02   6.5736458822988161e-02   7.2314875029433096e-02   7.8639302757162619e-02   8.4673148317504249e-02   9.0380500022169713e-02   9.5584072459566349e-02   1.0058033571779003e-01   1.0234018806112416e-01   7.9113473221697594e-04   1.1280231004033324e-02   2.2965407074907861e-02   3.4349771902079967e-02   4.5636414618535195e-02   5.6767463273969795e-02   6.7709510574594151e-02   7.8417952871161753e-02   8.8847430477094855e-02   9.8953060075141971e-02   1.0869049735013815e-01   1.1801371291098708e-01   1.2686779442020307e-01   1.3520318375262860e-01   1.4289051300118208e-01   1.5024758450889311e-01   1.5452097106642071e-01   5.1893337069962926e-04   1.5067945747515013e-02   3.0612619646171395e-02   4.5843682612948890e-02   6.0918499653891352e-02   7.5749788164778897e-02   9.0299074719027983e-02   1.0451061523255194e-01   1.1832777477342876e-01   1.3169304597765297e-01   1.4454860083310420e-01   1.5683511275465353e-01   1.6849108338895549e-01   1.7946638611615587e-01   1.8967235348305775e-01   1.9936608631080638e-01   2.0620691155454030e-01   1.8660501834219233e-04   1.8819970793208091e-02   3.8101157265606103e-02   5.7094853138714860e-02   7.5883115197430254e-02   9.4355976305404779e-02   1.1245956668824690e-01   1.3012319392084898e-01   1.4727819840556580e-01   1.6385512745571051e-01   1.7978508279086672e-01   1.9499959778416129e-01   2.0943472963309484e-01   2.2303729705325392e-01   2.3574393810477559e-01   2.4772294901503156e-01   2.5712808343354315e-01  -1.8906964817305268e-04   2.2512151384359490e-02   4.5430200943424530e-02   6.8096276473532544e-02   9.0509457881605915e-02   1.1254528479529069e-01   1.3413021009117052e-01   1.5517806212690780e-01   1.7560747791801690e-01   1.9533740950231218e-01   2.1428917024802496e-01   2.3238644818457141e-01   2.4956212611298292e-01   2.6575474069248473e-01   2.8091843187738902e-01   2.9512354850289135e-01   3.0709356422638973e-01  -5.9162158937796588e-04   2.6126882287821507e-02   5.2582970097221848e-02   7.8824475931110777e-02   1.0476414058298056e-01   1.3027012620036582e-01   1.5524827933955490e-01   1.7959775661320179e-01   2.0322448820249317e-01   2.2603626961679493e-01   2.4794493600224318e-01   2.6886588697947916e-01   2.8872664216886013e-01   3.0745377113543654e-01   3.2501546840253781e-01   3.4138178409363878e-01   3.5589483444193515e-01  -1.0038679356174462e-03   2.9649223076465871e-02   5.9537666096284678e-02   8.9249263232064419e-02   1.1860732153625299e-01   1.4747799847680851e-01   1.7574744617970184e-01   2.0330186692448690e-01   2.3003518276332868e-01   2.5584448536053334e-01   2.8063188516006415e-01   3.0430344527895220e-01   3.2677911420193595e-01   3.4797132927342050e-01   3.6786005575156666e-01   3.8631661070472362e-01   4.0332641660144603e-01  -1.4082143186626181e-03   3.3065272606486069e-02   6.6271613207517899e-02   9.9337438138751691e-02   1.3199469406284792e-01   1.6411170169276176e-01   1.9555696350137425e-01   2.2620601851003591e-01   2.5594193016165312e-01   2.8465155658543861e-01   3.1222684894292918e-01   3.3856345172194824e-01   3.6357173969278311e-01   3.8714865404340182e-01   4.0928326584133984e-01   4.2975297868642631e-01   4.4918718614899400e-01  -1.7869535837408701e-03   3.6361925697881166e-02   7.2762517932216497e-02   1.0905438804294663e-01   1.4487872486419717e-01   1.8010974368457347e-01   2.1460144421053157e-01   2.4822147491827162e-01   2.8084339068588376e-01   3.1234420951051506e-01   3.4260520513977044e-01   3.7151073165237269e-01   3.9895965480348078e-01   4.2483244922580310e-01   4.4912321864169025e-01   4.7152260447001876e-01   4.9328222004234168e-01  -2.1237093719703678e-03   3.9527032736613309e-02   7.8988923399061703e-02   1.1836447162033670e-01   1.5720836645643210e-01   1.9540548974228897e-01   2.3280007269588029e-01   2.6925479804988828e-01   3.0463468607705380e-01   3.3880691676944463e-01   3.7164155223369189e-01   4.0301125799468485e-01   4.3280138984609090e-01   4.6087567757839087e-01   4.8722649961334136e-01   5.1146543177642001e-01   5.3542394891906298e-01  -2.4027100312784895e-03   4.2549272199149807e-02   8.4930391347723705e-02   1.2722958899732309e-01   1.6892613775167789e-01   2.0992446600291356e-01   2.5006521648592367e-01   2.8920771704153886e-01   3.2720798315515642e-01   3.6392265522235728e-01   3.9921029505764272e-01   4.3293211905589196e-01   4.6495820376639369e-01   4.9513758534921087e-01   5.2344936752094084e-01   5.4943314233735308e-01   5.7543323399038171e-01  -2.6308682186002210e-03   4.5421695648010789e-02   9.0568435882181261e-02   1.3560371360759466e-01   1.7996114980555428e-01   2.2358047511888629e-01   2.6630202336400777e-01   3.0797873174933754e-01   3.4845467100131067e-01   3.8757463926827412e-01   4.2518596707116824e-01   4.6113945134951073e-01   4.9529066235879066e-01   5.2748073479830393e-01   5.5765597829271096e-01   5.8529881232773451e-01   6.1313969963799908e-01  -2.7351439179863551e-03   4.8151647269315159e-02   9.5879025376254479e-02   1.4340983272663893e-01   1.9021287257745634e-01   2.3626972839733928e-01   2.8140838335049867e-01   3.2546511905281239e-01   3.6826766645568842e-01   4.0964811674424850e-01   4.4944381329616717e-01   4.8749781053922248e-01   5.2365720302788132e-01   5.5776359568724221e-01   5.8970801906206205e-01   6.1897698367589260e-01   6.4837728587886845e-01  -2.6341911054642061e-03   5.0817568820942814e-02   1.0077283723438422e-01   1.5049560880575041e-01   1.9954677733415380e-01   2.4788470343661895e-01   2.9529263721299204e-01   3.4157975846164662e-01   3.8655657400863580e-01   4.3004369537508025e-01   4.7187010274767133e-01   5.1187327054677212e-01   5.4989844797227638e-01   5.8579647380205413e-01   6.1942623834223443e-01   6.5041970584388697e-01   6.8095089504497053e-01  -2.6602961971608097e-03   5.3577933829416544e-02   1.0480183136629767e-01   1.5662619719235474e-01   2.0782708400210051e-01   2.5835687983942074e-01   3.0790859424511313e-01   3.5628203051858481e-01   4.0327681605186844e-01   4.4870716598982507e-01   4.9239556300812914e-01   5.3417341537048912e-01   5.7388140821369849e-01   6.1137155377128971e-01   6.4651057400235135e-01   6.7919149630002773e-01   7.1037232144588391e-01 </DataArray>
<DataArray type="Float64" Name="Solution Component 1 - uy" Format="ascii">  1.0030108678451524e+00   1.0005241832070819e+00   9.9453607900327290e-01   9.8465840984808661e-01   9.7090808386844918e-01   9.5334208301176893e-01   9.3203588431694229e-01   9.0708040872465334e-01   8.7858098777274207e-01   8.4665656083906393e-01   8.1143938815981864e-01   7.7307213645370232e-01   7.3171307965774401e-01   6.8746904722430857e-01   6.4053335068727701e-01   5.9055611623853577e-01   5.4173772472602888e-01   1.0004237418443556e+00   9.9724538781913363e-01   9.9098310139919576e-01   9.8112133447708372e-01   9.6751037523722250e-01   9.5015235723665947e-01   9.2910039189985194e-01   9.0442989469825485e-01   8.7623246008304501e-01   8.4461387811343092e-01   8.0969263714504480e-01   7.7159852294757059e-01   7.3046939245281817e-01   6.8645350101844782e-01   6.3972164431121603e-01   5.9068467816910109e-01   5.4028826340375169e-01   9.9422419121988126e-01   9.9192145107260465e-01   9.8573211695454932e-01   9.7579648265010621e-01   9.6214269199658320e-01   9.4479097624426078e-01   9.2378462833371178e-01   8.9919033602994314e-01   8.7109414596439583e-01   8.3959794218523254e-01   8.0481747489528033e-01   7.6688184198394871e-01   7.2593553288866453e-01   6.8215330595731383e-01   6.3578134617674087e-01   5.8723992592911223e-01   5.3704324147478177e-01   9.8433399947043476e-01   9.8225130404452388e-01   9.7618065578707958e-01   9.6632712178516544e-01   9.5276673753628682e-01   9.3554053760237044e-01   9.1470118078055351e-01   8.9031643918446068e-01   8.6246995467525644e-01   8.3126082340383523e-01   7.9680360036280284e-01   7.5923013964415298e-01   7.1869548564427843e-01   6.7539466149347105e-01   6.2958090635778230e-01   5.8158951350821864e-01   5.3178013818550041e-01   9.7068755348301738e-01   9.6866255427676551e-01   9.6275869014977722e-01   9.5307095423316890e-01   9.3968957491510530e-01   9.2267631657846239e-01   9.0209607658333446e-01   8.7802086577823424e-01   8.5053508855404092e-01   8.1973772134465761e-01   7.8574409940560608e-01   7.4868909684110596e-01   7.0873264463374774e-01   6.6606954899959225e-01   6.2092748590883506e-01   5.7357494835687239e-01   5.2430172864567670e-01   9.5329184885456641e-01   9.5127840258267260e-01   9.4551201235018068e-01   9.3601881383847441e-01   9.2288024762298448e-01   9.0616548409244024e-01   8.8594372957637246e-01   8.6228928457694598e-01   8.3528759422328624e-01   8.0503792574140598e-01   7.7165581412021589e-01   7.3527605268254115e-01   6.9605585138858306e-01   6.5417865788002016e-01   6.0984510479020126e-01   5.6328486962570612e-01   5.1476915825582881e-01   9.3219783886041285e-01   9.3018206951334692e-01   9.2454275422073429e-01   9.1527246445150767e-01   9.0243394849256309e-01   8.8609499143159787e-01   8.6632413803512509e-01   8.4319612966308577e-01   8.1679634006113067e-01   7.8722331654553745e-01   7.5459108574512257e-01   7.1903114152415781e-01   6.8069346969855826e-01   6.3974748369024936e-01   5.9637242570837445e-01   5.5077399146775396e-01   5.0321297766077144e-01   9.0748139817742679e-01   9.0545837415260577e-01   8.9994798484441518e-01   8.9092512948936065e-01   8.7843615664572450e-01   8.6254308583100303e-01   8.4331015848298307e-01   8.2080973739392438e-01   7.9512508275649507e-01   7.6635245254695150e-01   7.3460259327848954e-01   7.0000151164197155e-01   6.6269012835504526e-01   6.2282415312458872e-01   5.8056581732173274e-01   5.3610320030090586e-01   4.8968949241766796e-01   8.7923480197796988e-01   8.7720195726942529e-01   8.7182864430452978e-01   8.6307994984721115e-01   8.5098877326957423e-01   8.3560830724992841e-01   8.1699564809730052e-01   7.9521834159139615e-01   7.7035586078344276e-01   7.4250089963165666e-01   7.1175973533215420e-01   6.7825181957416991e-01   6.4210856488958390e-01   6.0347270932698915e-01   5.6249168761273116e-01   5.1933825203062123e-01   4.7425765325727526e-01   8.4756404420357101e-01   8.4551892984392030e-01   8.4029447754796738e-01   8.3184982479720848e-01   8.2020479942321778e-01   8.0540118223342894e-01   7.8748665869503109e-01   7.6652220144019378e-01   7.4258246431987007e-01   7.1575593742440702e-01   6.8614401109510670e-01   6.5385936298416825e-01   6.1902411665989776e-01   5.8176844308527020e-01   5.4222548684414662e-01   5.0055194749652709e-01   4.5698295903608099e-01   8.1258721482696772e-01   8.1052669228056518e-01   8.0546593402816047e-01   7.9735900970828100e-01   7.8621008534862336e-01   7.7204613142975576e-01   7.5490335970763423e-01   7.3483534404408990e-01   7.1191190108349067e-01   6.8621756005544299e-01   6.5784914298828223e-01   6.2691300589009991e-01   5.9352272814684881e-01   5.5779600795831896e-01   5.1985131367230597e-01   4.7982483358974876e-01   4.3793729428876316e-01   7.7443477162992935e-01   7.7235383881606579e-01   7.6747553043383954e-01   7.5974542008510593e-01   7.4914520463746304e-01   7.3568194464067749e-01   7.1937910961962959e-01   7.0028374045741726e-01   6.7846214741687183e-01   6.5399595905711216e-01   6.2697828272323974e-01   5.9751020239606512e-01   5.6569791673536340e-01   5.3164682576676736e-01   4.9546091726477920e-01   4.5724626642922855e-01   4.1719977687848570e-01   7.3324257165117945e-01   7.3113650725772883e-01   7.2646721016627458e-01   7.1916290438575636e-01   7.0916769899655263e-01   6.9646273366378897e-01   6.8106069815955494e-01   6.6300577323443766e-01   6.4236329589004793e-01   6.1921326667237309e-01   5.9364587965441618e-01   5.6575804193327406e-01   5.3564987080645010e-01   5.0341670648549874e-01   4.6915103745335679e-01   4.3291617358353846e-01   3.9485896634803108e-01   6.8918064930688749e-01   6.8702457518089488e-01   6.8261023906332030e-01   6.7579519134866661e-01   6.6645868852473822e-01   6.5455731421374908e-01   6.4010324770926808e-01   6.2314449040888209e-01   6.0374788863759421e-01   5.8199226106527280e-01   5.5796500803184612e-01   5.3175971316632153e-01   5.0347283479256033e-01   4.7319615889312999e-01   4.4101480366063323e-01   4.0694593550919361e-01   3.7102106526586448e-01   6.4228394435194403e-01   6.4012985760996155e-01   6.3607629909333052e-01   6.2983122883794895e-01   6.2119357075527193e-01   6.1012682727426515e-01   5.9666156095241007e-01   5.8085408699337460e-01   5.6277175630212239e-01   5.4249004028992609e-01   5.2009161063875375e-01   4.9566563388885260e-01   4.6930594412630883e-01   4.4110591143461036e-01   4.1114889237221197e-01   3.7944509401320542e-01   3.4583773607535168e-01   5.9296347465652177e-01   5.9083752000772394e-01   5.8729295586323749e-01   5.8162761215955650e-01   5.7365257833586947e-01   5.6340260667305098e-01   5.5093101434312941e-01   5.3629736661746485e-01   5.1956507246082995e-01   5.0080379830288657e-01   4.8008993880481138e-01   4.5750689625957153e-01   4.3314517864966517e-01   4.0710275314664596e-01   3.7948444639392187e-01   3.5038499799011497e-01   3.1958472017542983e-01   5.4171692585144560e-01   5.3796410048582644e-01   5.3545801871093202e-01   5.3031720793139880e-01   5.2310345807602843e-01   5.1382034365760076e-01   5.0255887033328239e-01   4.8935351208373706e-01   4.7425070324942203e-01   4.5730160096707956e-01   4.3856459463102554e-01   4.1810473912445723e-01   3.9599378323325118e-01   3.7230984494470470e-01   3.4713595748046183e-01   3.2055953802777681e-01   2.9280827832589568e-01 </DataArray>
</PointData>
<CellData Scalars="scalars">