<VTKFile type="UnstructuredGrid" version="0.1" byte_order="LittleEndian">
<UnstructuredGrid>
<Piece NumberOfPoints="1089" NumberOfCells="2048">
<Points>
<DataArray type="Float64" NumberOfComponents="3" Format="ascii">  0.0000000000000000e+00  0.0000000000000000e+00  0.0000000000000000e+00   3.1250000000000000e-02  0.0000000000000000e+00  0.0000000000000000e+00   6.2500000000000000e-02  0.0000000000000000e+00  0.0000000000000000e+00   9.3750000000000000e-02  0.0000000000000000e+00  0.0000000000000000e+00   1.2500000000000000e-01  0.0000000000000000e+00  0.0000000000000000e+00   1.5625000000000000e-01  0.0000000000000000e+00  0.0000000000000000e+00   1.8750000000000000e-01  0.0000000000000000e+00  0.0000000000000000e+00   2.1875000000000000e-01  0.0000000000000000e+00  0.0000000000000000e+00   2.5000000000000000e-01  0.0000000000000000e+00  0.0000000000000000e+00   2.8125000000000000e-01  0.0000000000000000e+00  0.0000000000000000e+00   3.1250000000000000e-01  0.0000000000000000e+00  0.0000000000000000e+00   3.4375000000000000e-01  0.0000000000000000e+00  0.0000000000000000e+00   3.7500000000000000e-01  0.0000000000000000e+00  0.0000000000000000e+00   4.0625000000000000e-01  0.0000000000000000e+00  0.0000000000000000e+00   4.3750000000000000e-01  0.0000000000000000e+00  0.0000000000000000e+00   4.6875000000000000e-01  0.0000000000000000e+00  0.0000000000000000e+00   5.0000000000000000e-01  0.0000000000000000e+00  0.0000000000000000e+00   5.3125000000000000e-01  0.0000000000000000e+00  0.0000000000000000e+00   5.6250000000000000e-01  0.0000000000000000e+00  0.0000000000000000e+00   5.9375000000000000e-01  0.0000000000000000e+00  0.0000000000000000e+00   6.2500000000000000e-01  0.0000000000000000e+00  0.0000000000000000e+00   6.5625000000000000e-01  0.0000000000000000e+00  0.0000000000000000e+00   6.8750000000000000e-01  0.0000000000000000e+00  0.0000000000000000e+00   7.1875000000000000e-01  0.0000000000000000e+00  0.0000000000000000e+00   7.5000000000000000e-01  0.0000000000000000e+00  0.0000000000000000e+00   7.8125000000000000e-01  0.0000000000000000e+00  0.0000000000000000e+00   8.1250000000000000e-01  0.0000000000000000e+00  0.0000000000000000e+00   8.4375000000000000e-01  0.0000000000000000e+00  0.0000000000000000e+00   8.7500000000000000e-01  0.0000000000000000e+00  0.0000000000000000e+00   9.0625000000000000e-01  0.0000000000000000e+00  0.0000000000000000e+00   9.3750000000000000e-01  0.0000000000000000e+00  0.0000000000000000e+00   9.6875000000000000e-01  0.0000000000000000e+00  0.0000000000000000e+00   1.0000000000000000e+00  0.0000000000000000e+00  0.0000000000000000e+00   0.0000000000000000e+00  3.1250000000000000e-02  0.0000000000000000e+00   3.1250000000000000e-02  3.1250000000000000e-02  0.0000000000000000e+00   6.2500000000000000e-02  3.1250000000000000e-02  0.0000000000000000e+00   9.3750000000000000e-02  3.1250000000000000e-02  0.0000000000000000e+00   1.2500000000000000e-01  3.1250000000000000e-02  0.0000000000000000e+00   1.5625000000000000e-01  3.1250000000000000e-02  0.0000000000000000e+00   1.8750000000000000e-01  3.1250000000000000e-02  0.0000000000000000e+00   2.1875000000000000e-01  3.1250000000000000e-02  0.0000000000000000e+00   2.5000000000000000e-01  3.1250000000000000e-02  0.0000000000000000e+00   2.8125000000000000e-01  3.1250000000000000e-02  0.0000000000000000e+00   3.1250000000000000e-01  3.1250000000000000e-02  0.0000000000000000e+00   3.4375000000000000e-01  3.1250000000000000e-02  0.0000000000000000e+00   3.7500000000000000e-01  3.1250000000000000e-02  0.0000000000000000e+00   4.0625000000000000e-01  3.1250000000000000e-02  0.0000000000000000e+00   4.3750000000000000e-01  3.1250000000000000e-02  0.0000000000000000e+00   4.6875000000000000e-01  3.1250000000000000e-02  0.0000000000000000e+00   5.0000000000000000e-01  3.1250000000000000e-02  0.0000000000000000e+00   5.3125000000000000e-01  3.1250000000000000e-02  0.0000000000000000e+00   5.6250000000000000e-01  3.1250000000000000e-02  0.0000000000000000e+00   5.9375000000000000e-01  3.1250000000000000e-02  0.0000000000000000e+00   6.2500000000000000e-01  3.1250000000000000e-02  0.0000000000000000e+00   6.5625000000000000e-01  3.1250000000000000e-02  0.0000000000000000e+00   6.8750000000000000e-01  3.1250000000000000e-02  0.0000000000000000e+00   7.1875000000000000e-01  3.1250000000000000e-02  0.0000000000000000e+00   7.5000000000000000e-01  3.1250000000000000e-02  0.0000000000000000e+00   7.8125000000000000e-01  3.1250000000000000e-02  0.0000000000000000e+00   8.1250000000000000e-01  3.1250000000000000e-02  0.0000000000000000e+00   8.4375000000000000e-01  3.1250000000000000e-02  0.0000000000000000e+00   8.7500000000000000e-01  3.1250000000000000e-02  0.0000000000000000e+00   9.0625000000000000e-01  3.1250000000000000e-02  0.0000000000000000e+00   9.3750000000000000e-01  3.1250000000000000e-02  0.0000000000000000e+00   9.6875000000000000e-01  3.1250000000000000e-02  0.0000000000000000e+00   1.0000000000000000e+00  3.1250000000000000e-02  0.0000000000000000e+00   0.0000000000000000e+00  6.2500000000000000e-02  0.0000000000000000e+00   3.1250000000000000e-02  6.2500000000000000e-02  0.0000000000000000e+00   6.2500000000000000e-02  6.2500000000000000e-02  0.0000000000000000e+00   9.3750000000000000e-02  6.2500000000000000e-02  0.0000000000000000e+00   1.2500000000000000e-01  6.2500000000000000e-02  0.0000000000000000e+00   1.5625000000000000e-01  6.2500000000000000e-02  0.0000000000000000e+00   1.8750000000000000e-01  6.2500000000000000e-02  0.0000000000000000e+00   2.1875000000000000e-01  6.2500000000000000e-02  0.0000000000000000e+00   2.5000000000000000e-01  6.2500000000000000e-02  0.0000000000000000e+00   2.8125000000000000e-01  6.2500000000000000e-02  0.0000000000000000e+00   3.1250000000000000e-01  6.2500000000000000e-02  0.0000000000000000e+00   3.4375000000000000e-01  6.2500000000000000e-02  0.0000000000000000e+00   3.7500000000000000e-01  6.2500000000000000e-02  0.0000000000000000e+00   4.0625000000000000e-01  6.2500000000000000e-02  0.0000000000000000e+00   4.3750000000000000e-01  6.2500000000000000e-02  0.0000000000000000e+00   4.6875000000000000e-01  6.2500000000000000e-02  0.0000000000000000e+00   5.0000000000000000e-01  6.2500000000000000e-02  0.0000000000000000e+00   5.3125000000000000e-01  6.2500000000000000e-02  0.0000000000000000e+00   5.6250000000000000e-01  6.2500000000000000e-02  0.0000000000000000e+00   5.9375000000000000e-01  6.2500000000000000e-02  0.0000000000000000e+00   6.2500000000000000e-01  6.2500000000000000e-02  0.0000000000000000e+00   6.5625000000000000e-01  6.2500000000000000e-02  0.0000000000000000e+00   6.8750000000000000e-01  6.2500000000000000e-02  0.0000000000000000e+00   7.1875000000000000e-01  6.2500000000000000e-02  0.0000000000000000e+00   7.5000000000000000e-01  6.2500000000000000e-02  0.0000000000000000e+00   7.8125000000000000e-01  6.2500000000000000e-02  0.0000000000000000e+00   8.1250000000000000e-01  6.2500000000000000e-02  0.0000000000000000e+00   8.4375000000000000e-01  6.2500000000000000e-02  0.0000000000000000e+00   8.7500000000000000e-01  6.2500000000000000e-02  0.0000000000000000e+00   9.0625000000000000e-01  6.2500000000000000e-02  0.0000000000000000e+00   9.3750000000000000e-01  6.2500000000000000e-02  0.0000000000000000e+00   9.6875000000000000e-01  6.2500000000000000e-02  0.0000000000000000e+00   1.0000000000000000e+00  6.2500000000000000e-02  0.0000000000000000e+00   0.0000000000000000e+00  9.3750000000000000e-02  0.0000000000000000e+00   3.1250000000000000e-02  9.3750000000000000e-02  0.0000000000000000e+00   6.2500000000000000e-02  9.3750000000000000e-02  0.0000000000000000e+00   9.3750000000000000e-02  9.3750000000000000e-02  0.0000000000000000e+00   1.2500000000000000e-01  9.3750000000000000e-02  0.0000000000000000e+00   1.5625000000000000e-01  9.3750000000000000e-02  0.0000000000000000e+00   1.8750000000000000e-01  9.3750000000000000e-02  0.0000000000000000e+00   2.1875000000000000e-01  9.3750000000000000e-02  0.0000000000000000e+00   2.5000000000000000e-01  9.3750000000000000e-02  0.0000000000000000e+00   2.8125000000000000e-01  9.3750000000000000e-02  0.0000000000000000e+00   3.1250000000000000e-01  9.3750000000000000e-02  0.0000000000000000e+00   3.4375000000000000e-01  9.3750000000000000e-02  0.0000000000000000e+00   3.7500000000000000e-01  9.3750000000000000e-02  0.0000000000000000e+00   4.0625000000000000e-01  9.3750000000000000e-02  0.0000000000000000e+00   4.3750000000000000e-01  9.3750000000000000e-02  0.0000000000000000e+00   4.6875000000000000e-01  9.3750000000000000e-02  0.0000000000000000e+00   5.0000000000000000e-01  9.3750000000000000e-02  0.0000000000000000e+00   5.3125000000000000e-01  9.3750000000000000e-02  0.0000000000000000e+00   5.6250000000000000e-01  9.3750000000000000e-02  0.0000000000000000e+00   5.9375000000000000e-01  9.3750000000000000e-02  0.0000000000000000e+00   6.2500000000000000e-01  9.3750000000000000e-02  0.0000000000000000e+00   6.5625000000000000e-01  9.3750000000000000e-02  0.0000000000000000e+00   6.8750000000000000e-01  9.3750000000000000e-02  0.0000000000000000e+00   7.1875000000000000e-01  9.3750000000000000e-02  0.0000000000000000e+00   7.5000000000000000e-01  9.3750000000000000e-02  0.0000000000000000e+00   7.8125000000000000e-01  9.3750000000000000e-02  0.0000000000000000e+00   8.1250000000000000e-01  9.3750000000000000e-02  0.0000000000000000e+00   8.4375000000000000e-01  9.3750000000000000e-02  0.0000000000000000e+00   8.7500000000000000e-01  9.3750000000000000e-02  0.0000000000000000e+00   9.0625000000000000e-01  9.3750000000000000e-02  0.0000000000000000e+00   9.3750000000000000e-01  9.3750000000000000e-02  0.0000000000000000e+00   9.6875000000000000e-01  9.3750000000000000e-02  0.0000000000000000e+00   1.0000000000000000e+00  9.3750000000000000e-02  0.0000000000000000e+00   0.0000000000000000e+00  1.2500000000000000e-01  0.0000000000000000e+00   3.1250000000000000e-02  1.2500000000000000e-01  0.0000000000000000e+00  
[...]
<PointData Scalars="scalars">
<DataArray type="Float64" Name="Solution Component 0 - ux" Format="ascii">  5.7535344851093418e-05  -4.0966544155008954e-04  -4.6642577999511198e-04  -4.8608410324684463e-04  -4.9439208587444706e-04  -4.9747294284510982e-04  -4.9731246686130447e-04  -4.9491623076204736e-04  -4.9086221061533323e-04  -4.8548569144387819e-04  -4.7899193760017654e-04  -4.7151777584433221e-04  -4.6316328596692136e-04  -4.5400828236878319e-04  -4.4412107751471021e-04  -4.3356314694384455e-04  -4.2239144907342243e-04  -4.1065918070102067e-04  -3.9841513778025400e-04  -3.8570125402745604e-04  -3.7254715368304853e-04  -3.5895866279443814e-04  -3.4489632819272752e-04  -3.3022628640992744e-04  -3.1465247834465074e-04  -2.9746770997295948e-04  -2.7759265292375695e-04  -2.5147564880210349e-04  -2.1751341234418521e-04  -1.4663423837264289e-04  -8.0940467686464406e-05   2.4203284488873438e-04  -6.6617864060270295e-04   2.6556453466507435e-04   8.8443735458941487e-04   1.7318770369153516e-03   2.6189859643980257e-03   3.5420550343889644e-03   4.4802074418237841e-03   5.4247764172028054e-03   6.3708594564804832e-03   7.3153200480206675e-03   8.2559079428229740e-03   9.1908599517560290e-03   1.0118703316470440e-02   1.1038149878683359e-02   1.1948036412433400e-02   1.2847290301121661e-02   1.3734909894998334e-02   1.4609953947537023e-02   1.5471537276995219e-02   1.6318831450172464e-02   1.7151070480848889e-02   1.7967562593957469e-02   1.8767710498119847e-02   1.9551043396225130e-02   2.0317268779362838e-02   2.1066338693514056e-02   2.1798586419124494e-02   2.2514719178588220e-02   2.3216566596207997e-02   2.3904354708522660e-02   2.4584613044027426e-02   2.5214753549182942e-02   2.5859358569406073e-02   2.5629211129298515e-02   2.8837173368138680e-04   1.8663914942575249e-03   3.7794555915539106e-03   5.6563113010860448e-03   7.5433093890384176e-03   9.4365754957252690e-03   1.1332364508131791e-02   1.3225638617299288e-02   1.5112284210883419e-02   1.6988885782609306e-02   1.8852511546291213e-02   2.0700565520317304e-02   2.2530690660727701e-02   2.4340706988295914e-02   2.6128572575457077e-02   2.7892359478497237e-02   2.9630239723456166e-02   3.1340478432985257e-02   3.3021432462074854e-02   3.4671553722609959e-02   3.6289396754282638e-02   3.7873630085076479e-02   3.9423049057295947e-02   4.0936587174283230e-02   4.2413301270234918e-02   4.3852345146299980e-02   4.5252640585767105e-02   4.6612910705107376e-02   4.7927629825945721e-02   4.9193923109078781e-02   5.0363687277995534e-02   5.1532172800549947e-02   5.1872601817839023e-02   2.8116834355496897e-04   2.8259620696775042e-03   5.7600598053607994e-03   8.6281692959790830e-03   1.1496195277127714e-02   1.4357148242113555e-02   1.7211203065995346e-02   2.0055238990667808e-02   2.2885630011115887e-02   2.5698592671965202e-02   2.8490481970721755e-02   3.1257847307949338e-02   3.3997424245397347e-02   3.6706113305981863e-02   3.9380959865631768e-02   4.2019138605488865e-02   4.4617942734220588e-02   4.7174777223491726e-02   4.9687155009842707e-02   5.2152694847473494e-02   5.4569118810887558e-02   5.6934245998994937e-02   5.9245975251106787e-02   6.1502245840176321e-02   6.3700941621932378e-02   6.5839733280279103e-02   6.7915578791351794e-02   6.9924555765588037e-02   7.1858388494980857e-02   7.3713585746013235e-02   7.5452631489352204e-02   7.7188472269517860e-02   7.8100734314372394e-02   2.6420947889186595e-04   3.7898810104623343e-03   7.7120882024175226e-03   1.1564580194343459e-02   1.5411482925279881e-02   1.9240983756415673e-02   2.3055239782907549e-02   2.6851324942172208e-02   3.0625732717127409e-02   3.4374462137531932e-02   3.8093381788911938e-02   4.1778367794171087e-02   4.5425377543350444e-02   4.9030479720092078e-02   5.2589863510030255e-02   5.6099839171088378e-02   5.9556835340193078e-02   6.2957395026832480e-02   6.6298170397768044e-02   6.9575915115345485e-02   7.2787471484372410e-02   7.5929747538457978e-02   7.8999675332548744e-02   8.1994138267961286e-02   8.4909838014988789e-02   8.7743107845498103e-02   9.0489479695677250e-02   9.3143786545653515e-02   9.5697880406606164e-02   9.8150929616800206e-02   1.0047388354067339e-01   1.0277849417706549e-01   1.0426840503247739e-01   2.4126924774664607e-04   4.7547768644866633e-03   9.6478989898627077e-03   1.4475421865074613e-02   1.9294511854527803e-02   2.4089524445724236e-02   2.8862188767500959e-02   3.3608755936648450e-02   3.8325487488760641e-02   4.3007989948461813e-02   4.7651608354701697e-02   5.2251578640884255e-02   5.6803133594923789e-02   6.1301560142192575e-02   6.5742230396348827e-02   7.0120617139177777e-02   7.4432299984172834e-02   7.8672965421875310e-02   8.2838401725008726e-02   8.6924487932414821e-02   9.0927174447569023e-02   9.4842450930542124e-02   9.8666294740896943e-02   1.0239459271772876e-01   1.0602302204083229e-01   1.0954692230326034e-01   1.1296105460647278e-01   1.1626003277596640e-01   1.1943684731355853e-01   1.2249265836033436e-01   1.2540278304121780e-01   1.2827178400881306e-01   1.3033443879285209e-01   2.1331488049181936e-04   5.7169937843905075e-03   1.1571400623243924e-02   1.7365288315033818e-02   2.3148679770154990e-02   2.8903468133891639e-02   3.4629919499651059e-02   4.0323095450482058e-02   4.5978592105542372e-02   5.1591345112327505e-02   5.7156053314932759e-02   6.2667267582355329e-02   6.8119490135660307e-02   7.3507237651105506e-02   7.8825082276519992e-02   8.4067675913877163e-02   8.9229762814726998e-02   9.4306183454514317e-02   9.9291870916777533e-02   1.0418183956671996e-01   1.0897116456142836e-01   1.1365494979600128e-01   1.1822828155604893e-01   1.2268616787298540e-01   1.2702346494719646e-01   1.3123483844337974e-01   1.3531470357912589e-01   1.3925781707072243e-01   1.4305815676491840e-01   1.4671750747585466e-01   1.5021354030613165e-01   1.5364180131199340e-01   1.5627824515892269e-01   1.8084751936606156e-04   6.6746216348512553e-03   1.3482606303571927e-02   2.0234727127359235e-02   2.6974257547335359e-02   3.3681791922660756e-02   4.0355805445208372e-02   4.6990047667589310e-02   5.3579153406987164e-02   6.0117201531071453e-02   6.6598122732673792e-02   7.3015708338496049e-02   7.9363693532984392e-02   8.5635811997070502e-02   9.1825836386208629e-02   9.7927604999957424e-02   1.0393503753435991e-01   1.0984214180477089e-01   1.1564301253654748e-01   1.2133182253507323e-01   1.2690280605568238e-01   1.3235023427969717e-01   1.3766838422063574e-01   1.4285150672498095e-01   1.4789380449233089e-01   1.5278946683109271e-01   1.5753272102559637e-01   1.6211841992224932e-01   1.6654107285337760e-01   1.7080211958984973e-01   1.7488088994323489e-01   1.7886312035391211e-01   1.8207402587820976e-01   1.4429202859917849e-04   7.6264148267902506e-03   1.5380233911183084e-02   2.3082617124706301e-02   3.0769975000295841e-02   3.8422416423937393e-02   4.6036627640264560e-02   5.3605077119053726e-02   6.1121301927615619e-02   6.8578415919177071e-02   7.5969481197616956e-02   8.3287459575690184e-02   9.0525276902246127e-02   9.7675861575987150e-02   1.0473217865418637e-01   1.1168725447787635e-01   1.1853419283984465e-01   1.2526618348187887e-01   1.3187650376941137e-01   1.3835851426806617e-01   1.4470564916115969e-01   1.5091140326956612e-01   1.5696931973619596e-01   1.6287298646117354e-01   1.6861605503977120e-01   1.7419231663603651e-01   1.7959580095405933e-01   1.8482127066559001e-01   1.8986337051953331e-01   1.9472264165850181e-01   1.9937992266261328e-01   2.0391060783234713e-01   2.0769626037193309e-01   1.0406997554718764e-04   8.5713161688608600e-03   1.7262654717627869e-02   2.5907048558793295e-02   3.4533568679614685e-02   4.3122408106647900e-02   5.1668568632735279e-02   6.0163320201355189e-02   6.8599060117938371e-02   7.6967885710743103e-02   8.5261927793778336e-02   9.3473269458194203e-02   1.0159399179728969e-01   1.0961619620986371e-01   1.1753203037044538e-01   1.2533370846894112e-01   1.3301352607506414e-01   1.4056386957901879e-01   1.4797722082151263e-01   1.5524615788981186e-01   1.6236335373369307e-01   1.6932157536019374e-01   1.7611368873760885e-01   1.8273267702061699e-01   1.8917168460389183e-01   1.9542410572508337e-01   2.0148369380235162e-01   2.0734493304937535e-01   2.1300233578906821e-01   2.1845525068672053e-01   2.2368608685294911e-01   2.2875947909424199e-01   2.3311945050278682e-01   6.0618998670207038e-05   9.5083328556907817e-03   1.9128149935185152e-02   2.8705736192483192e-02   3.8262230436276884e-02   4.7778311882488642e-02   5.7247391492517702e-02   6.6659632641298414e-02   7.6006303444712542e-02   8.5278473240350469e-02   9.4467312109989390e-02   1.0356399597119513e-01   1.1255973749211402e-01   1.2144579564075569e-01   1.3021349369572774e-01   1.3885423442816699e-01   1.4735951292211269e-01   1.5572092641360930e-01   1.6393018161861392e-01   1.7197910060824551e-01   1.7985962713899062e-01   1.8756383635578608e-01   1.9508395275921014e-01   2.0241238193519370e-01   2.0954176608408931e-01   2.1646506751065461e-01   2.2317567313599368e-01   2.2966764260511213e-01   2.3593519399640742e-01   2.4197633723399883e-01   2.4777519020044986e-01   2.5338527670754640e-01   2.5831835623949045e-01   1.4398687039945082e-05   1.0436502782204904e-02   2.0974978645930120e-02   3.1476226438761412e-02   4.1952866018367570e-02   5.2386352578681225e-02   6.2768565289016726e-02   7.3088646995523671e-02   8.3336768947386883e-02   9.3502983867423506e-02   1.0357749517703417e-01   1.1355056100544011e-01   1.2341251481519754e-01   1.3315376607921639e-01   1.4276481153971204e-01   1.5223624576422246e-01   1.6155877180942843e-01   1.7072321111809877e-01   1.7972051306742765e-01   1.8854176515340829e-01   1.9717820560028376e-01   2.0562124088733114e-01   2.1386247214241649e-01   2.2189373331475767e-01   2.2970714912852050e-01   2.3729520495515466e-01   2.4465084387582728e-01   2.5176760083712080e-01   2.5863931020091763e-01   2.6526257966919042e-01   2.7162338913450035e-01   2.7776385260757308e-01   2.8326794893222917e-01  -3.4108853578147318e-05   1.1354882412085371e-02   2.2801401314908040e-02   3.4215996834801074e-02   4.5602237238130144e-02   5.6942570977552641e-02   6.8227374884212905e-02   7.9444843817343999e-02   9.0584089441985385e-02   1.0163417123572345e-01   1.1258433546210435e-01   1.2342392560934462e-01   1.3414239643011119e-01   1.4472930902748735e-01   1.5517433691272961e-01   1.6546727277044726e-01   1.7559803714102865e-01   1.8555668815957874e-01   1.9533343274886425e-01   2.0491864006806210e-01   2.1430285866088411e-01   2.2347683908565943e-01   2.3243156484558744e-01   2.4115829216486148e-01   2.4964860556514271e-01   2.5789447167342988e-01   2.6588833175380078e-01   2.7362313337002736e-01   2.8109228329148422e-01   2.8829096976701662e-01   2.9520717390202367e-01   3.0187135651261315e-01   3.0794343161470300e-01  -8.4400997424295384e-05   1.2262541786229521e-02   2.4605690513909061e-02   3.6922504486934966e-02   4.9207042049034033e-02   6.1442912759456333e-02   7.3619000573334162e-02   8.5722610304892588e-02   9.7741829619441958e-02   1.0966475349397697e-01   1.2147968981297348e-01   1.3317508040117032e-01   1.4473951080421332e-01   1.5616170207768654e-01   1.6743051297929956e-01   1.7853494375410484e-01   1.8946414309885384e-01   2.0020741759845007e-01   2.1075424400148970e-01   2.2109428489970989e-01   2.3121740881787387e-01   2.4111371573860313e-01   2.5077356986438143e-01   2.6018763828301472e-01   2.6934694238057760e-01   2.7824289639642141e-01   2.8686740002582017e-01   2.9521277802874030e-01   3.0327199291903273e-01   3.1103882226192126e-01   3.1850336083643899e-01   3.2568423722392759e-01   3.3232025856844666e-01  -1.3595794990739816e-04   1.3158562687303688e-02   2.6386136896957232e-02   3.9593211726744952e-02   5.2763961158741657e-02   6.5883285771350830e-02   7.8938574450289678e-02   9.1916287383109169e-02   1.0480352015704578e-01   1.1758743378066104e-01   1.3025542203107190e-01   1.4279504499324816e-01   1.5519403546849489e-01   1.6744028874061326e-01   1.7952186178448096e-01   1.9142697467821465e-01   2.0314401609104588e-01   2.1466155232321688e-01   2.2596834020474632e-01   2.3705334416350712e-01   2.4790575803555631e-01   2.5851503197193076e-01   2.6887090547178066e-01   2.7896344383756971e-01   2.8878308546421194e-01   2.9832066742605284e-01   3.0756752267912130e-01   3.1651533643716723e-01   3.2515662567722403e-01   3.3348378126674799e-01   3.4148909291564150e-01   3.4917925196056449e-01   3.5637416069991845e-01  -1.8824686002179083e-04   1.4042038400042471e-02   2.8141053352193052e-02   4.2225601455786584e-02   5.6269686633860588e-02   7.0259597574713617e-02   8.4181220175301261e-02   9.8020205714275388e-02   1.1176268622788177e-01   1.2539491978779740e-01   1.3890341394602629e-01   1.5227487208192891e-01   1.6549619611803454e-01   1.7855447465504831e-01   1.9143697958765599e-01   2.0413116550892033e-01   2.1662467391685081e-01   2.2890534183148684e-01   2.4096121502049381e-01   2.5278056588896802e-01   2.6435191622434845e-01   2.7566406462739962e-01   2.8670611915237815e-01   2.9746753151175204e-01   3.0793814124804691e-01   3.1810819114393341e-01   3.2796843285949717e-01   3.3750990755947169e-01   3.4672469349677071e-01   3.5560382865757251e-01   3.6414184728077281e-01   3.7233348079806722e-01   3.8008117181708911e-01  -2.4072636435986731e-04   1.4912074397725945e-02   2.9868778643227040e-02   4.4817187818524576e-02   5.9720940999169962e-02   7.4567781084091400e-02   8.9342081209157626e-02   1.0402871247628601e-01   1.1861286990049640e-01   1.3307994036225060e-01   1.4741557614284348e-01   1.6160565315346315e-01   1.7563626870389587e-01   1.8949372769833045e-01   2.0316453664881354e-01   2.1663540126697595e-01   2.2989322958575908e-01   2.4292514023809009e-01   2.5571847591188096e-01   2.6826082177990540e-01   2.8054002878281614e-01   2.9254424123312095e-01   3.0426192899561427e-01   3.1568192000412149e-01   3.2679344274328426e-01   3.3758613432455370e-01   3.4805015762914238e-01   3.5817591287944955e-01   3.6795505014147578e-01   3.7737729574803031e-01   3.8643944784588696e-01   3.9512434407827979e-01   4.0341765556374770e-01  -2.9285135163403477e-04   1.5767789695807617e-02   3.1567681262845593e-02   4.7365525016749226e-02   6.3114491482179028e-02   7.8803813043076168e-02   9.4416341003472404e-02   1.0993619058494612e-01   1.2534764638814014e-01   1.4063525779142511e-01   1.5578385626365801e-01   1.7077852350199563e-01   1.8560458229183044e-01   2.0024757997500967e-01   2.1469327963934792e-01   2.2892765607084326e-01   2.4293689808808444e-01   2.5670741673867448e-01   2.7022585910107300e-01   2.8347912722391277e-01   2.9645440183976846e-01   3.0913917010961434e-01   3.2152125759504346e-01   3.3358885990547310e-01   3.4533058500418734e-01   3.5673545666551965e-01   3.6779304558205278e-01   3.7849311835896371e-01   3.8882690847654311e-01   3.9878287835491927e-01   4.0836008157570886e-01   4.1752962157763296e-01   4.2636033252092537e-01  -3.4407778851960224e-04   1.6608318849400977e-02   3.3236164059715474e-02   4.9868215869635413e-02   6.6447161963112483e-02   8.2963728027543371e-02   9.9399237149596448e-02   1.1573707124815326e-01   1.3196063391824134e-01   1.4805367470219435e-01   1.6400024334400296e-01   1.7978466485788464e-01   1.9539152102801299e-01   2.1080563016590409e-01   2.2601203531319225e-01   2.4099599891802739e-01   2.5574300492093360e-01   2.7023876736357749e-01   2.8446924487063985e-01   2.9842066025832142e-01   3.1207952473423733e-01   3.2543266587857267e-01   3.3846725973102576e-01   3.5117086237240303e-01   3.6353145343554605e-01   3.7553743745744245e-01   3.8717779100087479e-01   3.9844165586488750e-01   4.0931985974011070e-01   4.1979965510489953e-01   4.2988231755029743e-01   4.3952747275374832e-01   4.4888630723358547e-01  -3.9386745931974988e-04   1.7432814765449670e-02   3.4872670248454959e-02   5.2322921203998438e-02   6.9715843995692625e-02   8.7043629160093242e-02   1.0428607006528680e-01   1.2142583965643396e-01   1.3844549635225217e-01   1.5532803428675432e-01   1.7205676675813286e-01   1.8861530427087328e-01   2.0498752404352480e-01   2.2115754528102338e-01   2.3710971465720121e-01   2.5282860054230222e-01   2.6829899577724403e-01   2.8350592748522818e-01   2.9843467276258251e-01   3.1307077922440690e-01   3.2740008977434393e-01   3.4140877086645494e-01   3.5508334487916143e-01   3.6841072219038928e-01   3.8137824694303663e-01   3.9397369851982583e-01   4.0618545646697085e-01   4.1800204545840031e-01   4.2941389552874698e-01   4.4040710904829272e-01   4.5098512849522038e-01   4.6109645778314695e-01   4.7097309497863832e-01  -4.4169242902005151e-04   1.8240452722794880e-02   3.6475691607010821e-02   5.4727370922392701e-02   7.2917507380964822e-02   9.1039695332510842e-02   1.0907220523785077e-01   1.2699703221778902e-01   1.4479593669206794e-01   1.6245121207245108e-01   1.7994548832001939e-01   1.9726170823007236e-01   2.1438308269253373e-01   2.3129306152673873e-01   2.4797531743152157e-01   2.6441374135913143e-01   2.8059244744983380e-01   2.9649578515033920e-01   3.1210835678035920e-01   3.2741503929066351e-01   3.4240100957934899e-01   3.5705177286307682e-01   3.7135319515978082e-01   3.8529153595030091e-01   3.9885349667906156e-01   4.1202622411471063e-01   4.2479749457061122e-01   4.3715521916363742e-01   4.4908943311560601e-01   4.6058515311029891e-01   4.7164791506179354e-01   4.8221555943997646e-01   4.9259864812260656e-01  -4.8703904601233504e-04   1.9030436323763878e-02   3.8043779978566936e-02   5.7079377374285728e-02   7.6049209735483250e-02   9.4948182983318002e-02   1.1375306599164840e-01   1.3244522188282662e-01   1.5100567830163678e-01   1.6941609684751496e-01   1.8765848612978958e-01   2.0571517150895369e-01   2.2356873527646992e-01   2.4120198483790117e-01   2.5859793782736229e-01   2.7573982125749591e-01   2.9261108066653213e-01   3.0919539588821165e-01   3.2547670118529093e-01   3.4143920838063652e-01   3.5706743246774159e-01   3.7234621958166847e-01   3.8726077888162874e-01   4.0179671522059723e-01   4.1594007996998505e-01   4.2967737722540084e-01   4.4299576817565128e-01   4.5588254613114704e-01   4.6832734476369819e-01   4.8031416060620741e-01   4.9185053395394979e-01   5.0286420627080797e-01   5.1374138191720697e-01  -5.2941084066887643e-04   1.9802006584731996e-02   3.9575563560063136e-02   5.9376851097336973e-02   7.9108102680847184e-02   9.8765417682742537e-02   1.1832411068180985e-01   1.3776498554017882e-01   1.5706842911329019e-01   1.7621555790814650e-01   1.9518782919108649e-01   2.1396700117320716e-01   2.3253506053669434e-01   2.5087419271409345e-01   2.6896677291419330e-01   2.8679537277988448e-01   3.0434277621717293e-01   3.2159200018514772e-01   3.3852631792616789e-01   3.5512928338445754e-01   3.7138475655584530e-01   3.8727693014462844e-01   4.0279035948291819e-01   4.1790999384372740e-01   4.3262122782111900e-01   4.4690991007896153e-01   4.6076256715311742e-01   4.7416585800847072e-01   4.8710899154509923e-01   4.9957500303202801e-01   5.1157333230313673e-01   5.2302229818633872e-01   5.3438019955751048e-01  -5.6833065572813154e-04   2.0554456236710841e-02   4.1069769711525983e-02   6.1617817472772327e-02   8.2091428722281340e-02   1.0248776593503273e-01   1.2278078345356447e-01   1.4295084406441938e-01   1.6297782265881405e-01   1.8284239612480666e-01   2.0252554324900804e-01   2.2200849800602035e-01   2.4127267292319096e-01   2.6029964040950876e-01   2.7907113661082456e-01   2.9756908000871324e-01   3.1577559631931695e-01   3.3367304529472402e-01   3.5124404716829122e-01   3.6847150792522287e-01   3.8533864353900305e-01   4.0182900402733995e-01   4.1792649946378585e-01   4.3361542781967977e-01   4.4888052311327231e-01   4.6370696489947177e-01   4.7808061712441469e-01   4.9198747112980384e-01   5.0541626119068794e-01   5.1834909857954914e-01   5.3079719305837392e-01   5.4267023691672622e-01   5.5449451625216528e-01  -6.0333506991028295e-04   2.1287152002013417e-02   4.2525255295442585e-02   6.3800428767969652e