<VTKFile type="UnstructuredGrid" version="0.1" byte_order="LittleEndian">
<UnstructuredGrid>
<Piece NumberOfPoints="25" NumberOfCells="32">
<Points>
<DataArray type="Float64" NumberOfComponents="3" Format="ascii">  0.0000000000000000e+00  0.0000000000000000e+00  0.0000000000000000e+00   2.5000000000000000e-01  0.0000000000000000e+00  0.0000000000000000e+00   5.0000000000000000e-01  0.0000000000000000e+00  0.0000000000000000e+00   7.5000000000000000e-01  0.0000000000000000e+00  0.0000000000000000e+00   1.0000000000000000e+00  0.0000000000000000e+00  0.0000000000000000e+00   0.0000000000000000e+00  2.5000000000000000e-01  0.0000000000000000e+00   2.5000000000000000e-01  2.5000000000000000e-01  0.0000000000000000e+00   5.0000000000000000e-01  2.5000000000000000e-01  0.0000000000000000e+00   7.5000000000000000e-01  2.5000000000000000e-01  0.0000000000000000e+00   1.0000000000000000e+00  2.5000000000000000e-01  0.0000000000000000e+00   0.0000000000000000e+00  5.0000000000000000e-01  0.0000000000000000e+00   2.5000000000000000e-01  5.0000000000000000e-01  0.0000000000000000e+00   5.0000000000000000e-01  5.0000000000000000e-01  0.0000000000000000e+00   7.5000000000000000e-01  5.0000000000000000e-01  0.0000000000000000e+00   1.0000000000000000e+00  5.0000000000000000e-01  0.0000000000000000e+00   0.0000000000000000e+00  7.5000000000000000e-01  0.0000000000000000e+00   2.5000000000000000e-01  7.5000000000000000e-01  0.0000000000000000e+00   5.0000000000000000e-01  7.5000000000000000e-01  0.0000000000000000e+00   7.5000000000000000e-01  7.5000000000000000e-01  0.0000000000000000e+00   1.0000000000000000e+00  7.5000000000000000e-01  0.0000000000000000e+00   0.0000000000000000e+00  1.0000000000000000e+00  0.0000000000000000e+00   2.5000000000000000e-01  1.0000000000000000e+00  0.0000000000000000e+00   5.0000000000000000e-01  1.0000000000000000e+00  0.0000000000000000e+00   7.5000000000000000e-01  1.0000000000000000e+00  0.0000000000000000e+00   1.0000000000000000e+00  1.0000000000000000e+00  0.0000000000000000e+00 </DataArray>
</Points>
<PointData Scalars="scalars">
<DataArray type="Float64" Name="Solution Component 0 - ux" Format="ascii"> -8.6773217481872760e-03  -2.2168871521387291e-02  -1.7112507812165268e-02   2.4144621420323651e-03  -3.8645493493159870e-02  -1.5829269500028510e-03   6.1040472815342486e-02   1.1475628558545968e-01   1.6355733233084774e-01   1.7852873458772903e-01  -1.9092751199453330e-02   1.1710899915418357e-01   2.2987918345305314e-01   3.2370921153839172e-01   3.9542037085601028e-01  -3.2689893606374254e-02   1.6953439760716266e-01   3.3064344026199499e-01   4.6977237193599941e-01   5.9086242638280995e-01  -3.9829433537853391e-02   2.1836875010807863e-01   4.0491368183716420e-01   5.7993698254212855e-01   7.3066683654955600e-01 </DataArray>
<DataArray type="Float64" Name="Solution Component 1 - uy" Format="ascii">  1.0390605074677324e+00   9.9195417642799211e-01   8.8279154191402676e-01   7.1656011950030263e-01   5.6474947078158144e-01   1.0023772254404761e+00   9.4834510068783739e-01   8.4970086414741086e-01   7.0614366873851397e-01   5.3208566349558117e-01   8.9887252687628971e-01   8.5856668807265701e-01   7.7171423741232925e-01   6.4267952264044448e-01   4.7684619883249024e-01   7.4803981184994206e-01   7.1212066500042759e-01   6.4310065308599107e-01   5.3961323082715251e-01   4.0027124466010527e-01   5.6356558607613261e-01   5.0534161037456671e-01   4.6827858150873536e-01   3.9950856180444605e-01   2.9971628228525038e-01 </DataArray>
</PointData>
<CellData Scalars="scalars">
<DataArray type="Float64" Name="Solution Component 2 - u_eg " Format="ascii"> -5.5108841478922643e-02   7.0581759754173769e-03   5.4138027016133704e-03   5.0964476379503562e-02  -1.7019618799562285e-02   4.7236345951254879e-02   5.6921939045448519e-04   2.0739433702441058e-02  -2.4426520929807252e-02   7.0882569545523369e-02  -3.3677083152721436e-02   7.9499600109473795e-02  -2.4487686800048952e-02   3.9264749015815545e-02  -1.6655639585104642e-02  -1.1608703541220610e-02   1.4322160600245651e-02   2.4520872274793486e-02  -3.9264295469169638e-02   2.4487841091108738e-02  -4.3715898434406160e-02  -2.1065933223623780e-03  -4.8951359468073448e-02   2.1341194404620872e-02  -2.0739835329765581e-02  -5.6937449796251171e-04  -4.9947609712255134e-02   9.1546352178229432e-03  -4.7880536234185672e-02  -2.7344774899970729e-02  -2.1467382157471862e-03   5.0196472115740548e-02 </DataArray>
<DataArray type="Float64" Name="Solution Component 3 - p" Format="ascii">  1.3349078848318632e+03   1.3346188368716219e+03   1.3352859113443010e+03   1.3353224404778700e+03   1.3353155841092432e+03   1.3354700158349506e+03   1.3349076618640240e+03   1.3341530648160392e+03   1.3347618792486737e+03   1.3347896794683265e+03   1.3347931368583013e+03   1.3350210152611303e+03   1.3347961502092876e+03   1.3349279164314448e+03   1.3346816286916485e+03   1.3343427247779546e+03   1.3348043536110686e+03   1.3344062399807224e+03   1.3341211846050271e+03   1.3342529503897381e+03   1.3340316777222361e+03   1.3342523704461787e+03   1.3342943923219050e+03   1.3345061985203849e+03   1.3348960361518989e+03   1.3341414398689867e+03   1.3334811104936762e+03   1.3336947482737078e+03   1.3335076854489864e+03   1.3337282218623054e+03   1.3340683524416092e+03   1.3345031245117821e+03 </DataArray>
</CellData>
<Cells>
<DataArray type="Int64" Name="offsets" Format="ascii"> 3  6  9  12  15  18  21  24  27  30  33  36  39  42  45  48  51  54  57  60  63  66  69  72  75  78  81  84  87  90  93  96 </DataArray>
<DataArray type="Int64" Name="connectivity" Format="ascii">
 5  6  0  1  6  0  1  6  7  1  2  7  8  2  7  8  2  3  8  9  3  4  9  3  5  10  11  5  6  11  12  6  11  12  6  7  12  13  7  8  13  7  8  13  14  8  9  14  16  10  15  16  10  11  16  17  11  12  17  11  12  17  18  12  13  18  19  13  18  19  13  14  20  21  15  16  21  15  16  21  22  16  17  22  23  17  22  23  17  18  23  24  18  19  24  18 </DataArray>
<DataArray type="Int64" Name="types" Format="ascii"> 5  5  5  5  5  5  5  5  5  5  5  5  5  5  5  5  5  5  5  5  5  5  5  5  5  5  5  5  5  5  5  5 </DataArray>
</Cells>
</Piece>
</UnstructuredGrid>
</VTKFile>
