<VTKFile type="UnstructuredGrid" version="0.1" byte_order="LittleEndian">
<UnstructuredGrid>
<Piece NumberOfPoints="25" NumberOfCells="32">
<Points>
<DataArray type="Float64" NumberOfComponents="3" Format="ascii">  0.0000000000000000e+00  0.0000000000000000e+00  0.0000000000000000e+00   2.5000000000000000e-01  0.0000000000000000e+00  0.0000000000000000e+00   5.0000000000000000e-01  0.0000000000000000e+00  0.0000000000000000e+00   7.5000000000000000e-01  0.0000000000000000e+00  0.0000000000000000e+00   1.0000000000000000e+00  0.0000000000000000e+00  0.0000000000000000e+00   0.0000000000000000e+00  2.5000000000000000e-01  0.0000000000000000e+00   2.5000000000000000e-01  2.5000000000000000e-01  0.0000000000000000e+00   5.0000000000000000e-01  2.5000000000000000e-01  0.0000000000000000e+00   7.5000000000000000e-01  2.5000000000000000e-01  0.0000000000000000e+00   1.0000000000000000e+00  2.5000000000000000e-01  0.0000000000000000e+00   0.0000000000000000e+00  5.0000000000000000e-01  0.0000000000000000e+00   2.5000000000000000e-01  5.0000000000000000e-01  0.0000000000000000e+00   5.0000000000000000e-01  5.0000000000000000e-01  0.0000000000000000e+00   7.5000000000000000e-01  5.0000000000000000e-01  0.0000000000000000e+00   1.0000000000000000e+00  5.0000000000000000e-01  0.0000000000000000e+00   0.0000000000000000e+00  7.5000000000000000e-01  0.0000000000000000e+00   2.5000000000000000e-01  7.5000000000000000e-01  0.0000000000000000e+00   5.0000000000000000e-01  7.5000000000000000e-01  0.0000000000000000e+00   7.5000000000000000e-01  7.5000000000000000e-01  0.0000000000000000e+00   1.0000000000000000e+00  7.5000000000000000e-01  0.0000000000000000e+00   0.0000000000000000e+00  1.0000000000000000e+00  0.0000000000000000e+00   2.5000000000000000e-01  1.0000000000000000e+00  0.0000000000000000e+00   5.0000000000000000e-01  1.0000000000000000e+00  0.0000000000000000e+00   7.5000000000000000e-01  1.0000000000000000e+00  0.0000000000000000e+00   1.0000000000000000e+00  1.0000000000000000e+00  0.0000000000000000e+00 </DataArray>
</Points>
<PointData Scalars="scalars">
<DataArray type="Float64" Name="Solution Component 0 - ux" Format="ascii"> -8.6773217481785608e-03  -2.2168871521385840e-02  -1.7112507812151061e-02   2.4144621420319114e-03  -3.8645493493175087e-02  -1.5829269500073186e-03   6.1040472815340197e-02   1.1475628558546280e-01   1.6355733233084052e-01   1.7852873458773177e-01  -1.9092751199453636e-02   1.1710899915418777e-01   2.2987918345305580e-01   3.2370921153838611e-01   3.9542037085600834e-01  -3.2689893606369841e-02   1.6953439760716602e-01   3.3064344026199477e-01   4.6977237193599813e-01   5.9086242638282027e-01  -3.9829433537834052e-02   2.1836875010806647e-01   4.0491368183715698e-01   5.7993698254212689e-01   7.3066683654955011e-01 </DataArray>
<DataArray type="Float64" Name="Solution Component 1 - uy" Format="ascii">  1.0390605074677504e+00   9.9195417642800232e-01   8.8279154191404285e-01   7.1656011950030973e-01   5.6474947078159721e-01   1.0023772254404646e+00   9.4834510068783628e-01   8.4970086414740720e-01   7.0614366873850654e-01   5.3208566349556874e-01   8.9887252687628494e-01   8.5856668807266345e-01   7.7171423741232725e-01   6.4267952264044492e-01   4.7684619883248891e-01   7.4803981184995072e-01   7.1212066500042626e-01   6.4310065308598985e-01   5.3961323082715773e-01   4.0027124466010294e-01   5.6356558607611273e-01   5.0534161037456804e-01   4.6827858150873392e-01   3.9950856180444333e-01   2.9971628228524277e-01 </DataArray>
</PointData>
<CellData Scalars="scalars">
<DataArray type="Float64" Name="Solution Component 2 - u_eg " Format="ascii"> -5.5108841478757879e-02   7.0581759754691316e-03   5.4138027016684218e-03   5.0964476379534593e-02  -1.7019618799325297e-02   4.7236345951482080e-02   5.6921939059975603e-04   2.0739433702675249e-02  -2.4426520929846703e-02   7.0882569545522855e-02  -3.3677083152731248e-02   7.9499600109480650e-02  -2.4487686799983196e-02   3.9264749015910844e-02  -1.6655639585167286e-02  -1.1608703541300574e-02   1.4322160600179752e-02   2.4520872274793798e-02  -3.9264295469100513e-02   2.4487841091144481e-02  -4.3715898434367614e-02  -2.1065933223375906e-03  -4.8951359468145599e-02   2.1341194404614825e-02  -2.0739835329487002e-02  -5.6937449789639836e-04  -4.9947609712251123e-02   9.1546352178588641e-03  -4.7880536234197815e-02  -2.7344774899918493e-02  -2.1467382157237275e-03   5.0196472115705000e-02 </DataArray>
<DataArray type="Float64" Name="Solution Component 3 - p" Format="ascii">  3.8333427727280878e-01   9.4286317031370331e-02   7.6136078971061394e-01   7.9788992327957320e-01   7.9103355465300662e-01   9.4546528036031074e-01   3.8311130943397015e-01  -3.7148573855126144e-01   2.3732869408320370e-01   2.6512891373611813e-01   2.6858630371080483e-01   4.9646470653995473e-01   2.7159965469726433e-01   4.0336587685458675e-01   1.5707813705785287e-01  -1.8182577663594962e-01   2.7980305647811987e-01  -1.1831057386799763e-01  -4.0336594956342847e-01  -2.7160016485232646e-01  -4.9287283235431484e-01  -2.7218010841193296e-01  -2.3015823268551153e-01  -1.8352034205445390e-02   3.7148559730842540e-01  -3.8311068560369771e-01  -1.0434400609144470e+00  -8.2980228088270758e-01  -1.0168651056041593e+00  -7.9632869228490710e-01  -4.5619811298140878e-01  -2.1426042808490198e-02 </DataArray>
</CellData>
<Cells>
<DataArray type="Int64" Name="offsets" Format="ascii"> 3  6  9  12  15  18  21  24  27  30  33  36  39  42  45  48  51  54  57  60  63  66  69  72  75  78  81  84  87  90  93  96 </DataArray>
<DataArray type="Int64" Name="connectivity" Format="ascii">
 5  6  0  1  6  0  1  6  7  1  2  7  8  2  7  8  2  3  8  9  3  4  9  3  5  10  11  5  6  11  12  6  11  12  6  7  12  13  7  8  13  7  8  13  14  8  9  14  16  10  15  16  10  11  16  17  11  12  17  11  12  17  18  12  13  18  19  13  18  19  13  14  20  21  15  16  21  15  16  21  22  16  17  22  23  17  22  23  17  18  23  24  18  19  24  18 </DataArray>
<DataArray type="Int64" Name="types" Format="ascii"> 5  5  5  5  5  5  5  5  5  5  5  5  5  5  5  5  5  5  5  5  5  5  5  5  5  5  5  5  5  5  5  5 </DataArray>
</Cells>
</Piece>
</UnstructuredGrid>
</VTKFile>
