<VTKFile type="UnstructuredGrid" version="0.1" byte_order="LittleEndian">
<UnstructuredGrid>
<Piece NumberOfPoints="4225" NumberOfCells="8192">
<Points>
<DataArray type="Float64" NumberOfComponents="3" Format="ascii">  0.0000000000000000e+00  0.0000000000000000e+00  0.0000000000000000e+00   1.5625000000000000e-02  0.0000000000000000e+00  0.0000000000000000e+00   3.1250000000000000e-02  0.0000000000000000e+00  0.0000000000000000e+00   4.6875000000000000e-02  0.0000000000000000e+00  0.0000000000000000e+00   6.2500000000000000e-02  0.0000000000000000e+00  0.0000000000000000e+00   7.8125000000000000e-02  0.0000000000000000e+00  0.0000000000000000e+00   9.3750000000000000e-02  0.0000000000000000e+00  0.0000000000000000e+00   1.0937500000000000e-01  0.0000000000000000e+00  0.0000000000000000e+00   1.2500000000000000e-01  0.0000000000000000e+00  0.0000000000000000e+00   1.4062500000000000e-01  0.0000000000000000e+00  0.0000000000000000e+00   1.5625000000000000e-01  0.0000000000000000e+00  0.0000000000000000e+00   1.7187500000000000e-01  0.0000000000000000e+00  0.0000000000000000e+00   1.8750000000000000e-01  0.0000000000000000e+00  0.0000000000000000e+00   2.0312500000000000e-01  0.0000000000000000e+00  0.0000000000000000e+00   2.1875000000000000e-01  0.0000000000000000e+00  0.0000000000000000e+00   2.3437500000000000e-01  0.0000000000000000e+00  0.0000000000000000e+00   2.5000000000000000e-01  0.0000000000000000e+00  0.0000000000000000e+00   2.6562500000000000e-01  0.0000000000000000e+00  0.0000000000000000e+00   2.8125000000000000e-01  0.0000000000000000e+00  0.0000000000000000e+00   2.9687500000000000e-01  0.0000000000000000e+00  0.0000000000000000e+00   3.1250000000000000e-01  0.0000000000000000e+00  0.0000000000000000e+00   3.2812500000000000e-01  0.0000000000000000e+00  0.0000000000000000e+00   3.4375000000000000e-01  0.0000000000000000e+00  0.0000000000000000e+00   3.5937500000000000e-01  0.0000000000000000e+00  0.0000000000000000e+00   3.7500000000000000e-01  0.0000000000000000e+00  0.0000000000000000e+00   3.9062500000000000e-01  0.0000000000000000e+00  0.0000000000000000e+00   4.0625000000000000e-01  0.0000000000000000e+00  0.0000000000000000e+00   4.2187500000000000e-01  0.0000000000000000e+00  0.0000000000000000e+00   4.3750000000000000e-01  0.0000000000000000e+00  0.0000000000000000e+00   4.5312500000000000e-01  0.0000000000000000e+00  0.0000000000000000e+00   4.6875000000000000e-01  0.0000000000000000e+00  0.0000000000000000e+00   4.8437500000000000e-01  0.0000000000000000e+00  0.0000000000000000e+00   5.0000000000000000e-01  0.0000000000000000e+00  0.0000000000000000e+00   5.1562500000000000e-01  0.0000000000000000e+00  0.0000000000000000e+00   5.3125000000000000e-01  0.0000000000000000e+00  0.0000000000000000e+00   5.4687500000000000e-01  0.0000000000000000e+00  0.0000000000000000e+00   5.6250000000000000e-01  0.0000000000000000e+00  0.0000000000000000e+00   5.7812500000000000e-01  0.0000000000000000e+00  0.0000000000000000e+00   5.9375000000000000e-01  0.0000000000000000e+00  0.0000000000000000e+00   6.0937500000000000e-01  0.0000000000000000e+00  0.0000000000000000e+00   6.2500000000000000e-01  0.0000000000000000e+00  0.0000000000000000e+00   6.4062500000000000e-01  0.0000000000000000e+00  0.0000000000000000e+00   6.5625000000000000e-01  0.0000000000000000e+00  0.0000000000000000e+00   6.7187500000000000e-01  0.0000000000000000e+00  0.0000000000000000e+00   6.8750000000000000e-01  0.0000000000000000e+00  0.0000000000000000e+00   7.0312500000000000e-01  0.0000000000000000e+00  0.0000000000000000e+00   7.1875000000000000e-01  0.0000000000000000e+00  0.0000000000000000e+00   7.3437500000000000e-01  0.0000000000000000e+00  0.0000000000000000e+00   7.5000000000000000e-01  0.0000000000000000e+00  0.0000000000000000e+00   7.6562500000000000e-01  0.0000000000000000e+00  0.0000000000000000e+00   7.8125000000000000e-01  0.0000000000000000e+00  0.0000000000000000e+00   7.9687500000000000e-01  0.0000000000000000e+00  0.0000000000000000e+00   8.1250000000000000e-01  0.0000000000000000e+00  0.0000000000000000e+00   8.2812500000000000e-01  0.0000000000000000e+00  0.0000000000000000e+00   8.4375000000000000e-01  0.0000000000000000e+00  0.0000000000000000e+00   8.5937500000000000e-01  0.0000000000000000e+00  0.0000000000000000e+00   8.7500000000000000e-01  0.0000000000000000e+00  0.0000000000000000e+00   8.9062500000000000e-01  0.0000000000000000e+00  0.0000000000000000e+00   9.0625000000000000e-01  0.0000000000000000e+00  0.0000000000000000e+00   9.2187500000000000e-01  0.0000000000000000e+00  0.0000000000000000e+00   9.3750000000000000e-01  0.0000000000000000e+00  0.0000000000000000e+00   9.5312500000000000e-01  0.0000000000000000e+00  0.0000000000000000e+00   9.6875000000000000e-01  0.0000000000000000e+00  0.0000000000000000e+00   9.8437500000000000e-01  0.0000000000000000e+00  0.0000000000000000e+00   1.0000000000000000e+00  0.0000000000000000e+00  0.0000000000000000e+00   0.0000000000000000e+00  1.5625000000000000e-02  0.0000000000000000e+00   1.5625000000000000e-02  1.5625000000000000e-02  0.0000000000000000e+00   3.1250000000000000e-02  1.5625000000000000e-02  0.0000000000000000e+00   4.6875000000000000e-02  1.5625000000000000e-02  0.0000000000000000e+00   6.2500000000000000e-02  1.5625000000000000e-02  0.0000000000000000e+00   7.8125000000000000e-02  1.5625000000000000e-02  0.0000000000000000e+00   9.3750000000000000e-02  1.5625000000000000e-02  0.0000000000000000e+00   1.0937500000000000e-01  1.5625000000000000e-02  0.0000000000000000e+00   1.2500000000000000e-01  1.5625000000000000e-02  0.0000000000000000e+00   1.4062500000000000e-01  1.5625000000000000e-02  0.0000000000000000e+00   1.5625000000000000e-01  1.5625000000000000e-02  0.0000000000000000e+00   1.7187500000000000e-01  1.5625000000000000e-02  0.0000000000000000e+00   1.8750000000000000e-01  1.5625000000000000e-02  0.0000000000000000e+00   2.0312500000000000e-01  1.5625000000000000e-02  0.0000000000000000e+00   2.1875000000000000e-01  1.5625000000000000e-02  0.0000000000000000e+00   2.3437500000000000e-01  1.5625000000000000e-02  0.0000000000000000e+00   2.5000000000000000e-01  1.5625000000000000e-02  0.0000000000000000e+00   2.6562500000000000e-01  1.5625000000000000e-02  0.0000000000000000e+00   2.8125000000000000e-01  1.5625000000000000e-02  0.0000000000000000e+00   2.9687500000000000e-01  1.5625000000000000e-02  0.0000000000000000e+00   3.1250000000000000e-01  1.5625000000000000e-02  0.0000000000000000e+00   3.2812500000000000e-01  1.5625000000000000e-02  0.0000000000000000e+00   3.4375000000000000e-01  1.5625000000000000e-02  0.0000000000000000e+00   3.5937500000000000e-01  1.5625000000000000e-02  0.0000000000000000e+00   3.7500000000000000e-01  1.5625000000000000e-02  0.0000000000000000e+00   3.9062500000000000e-01  1.5625000000000000e-02  0.0000000000000000e+00   4.0625000000000000e-01  1.5625000000000000e-02  0.0000000000000000e+00   4.2187500000000000e-01  1.5625000000000000e-02  0.0000000000000000e+00   4.3750000000000000e-01  1.5625000000000000e-02  0.0000000000000000e+00   4.5312500000000000e-01  1.5625000000000000e-02  0.0000000000000000e+00   4.6875000000000000e-01  1.5625000000000000e-02  0.0000000000000000e+00   4.8437500000000000e-01  1.5625000000000000e-02  0.0000000000000000e+00   5.0000000000000000e-01  1.5625000000000000e-02  0.0000000000000000e+00   5.1562500000000000e-01  1.5625000000000000e-02  0.0000000000000000e+00   5.3125000000000000e-01  1.5625000000000000e-02  0.0000000000000000e+00   5.4687500000000000e-01  1.5625000000000000e-02  0.0000000000000000e+00   5.6250000000000000e-01  1.5625000000000000e-02  0.0000000000000000e+00   5.7812500000000000e-01  1.5625000000000000e-02  0.0000000000000000e+00   5.9375000000000000e-01  1.5625000000000000e-02  0.0000000000000000e+00   6.0937500000000000e-01  1.5625000000000000e-02  0.0000000000000000e+00   6.2500000000000000e-01  1.5625000000000000e-02  0.0000000000000000e+00   6.4062500000000000e-01  1.5625000000000000e-02  0.0000000000000000e+00   6.5625000000000000e-01  1.5625000000000000e-02  0.0000000000000000e+00   6.7187500000000000e-01  1.5625000000000000e-02  0.0000000000000000e+00   6.8750000000000000e-01  1.5625000000000000e-02  0.0000000000000000e+00   7.0312500000000000e-01  1.5625000000000000e-02  0.0000000000000000e+00   7.1875000000000000e-01  1.5625000000000000e-02  0.0000000000000000e+00   7.3437500000000000e-01  1.5625000000000000e-02  0.0000000000000000e+00   7.5000000000000000e-01  1.5625000000000000e-02  0.0000000000000000e+00   7.6562500000000000e-01  1.5625000000000000e-02  0.0000000000000000e+00   7.8125000000000000e-01  1.5625000000000000e-02  0.0000000000000000e+00   7.9687500000000000e-01  1.5625000000000000e-02  0.0000000000000000e+00   8.1250000000000000e-01  1.5625000000000000e-02  0.0000000000000000e+00   8.2812500000000000e-01  1.5625000000000000e-02  0.0000000000000000e+00   8.4375000000000000e-01  1.5625000000000000e-02  0.0000000000000000e+00   8.5937500000000000e-01  1.5625000000000000e-02  0.0000000000000000e+00   8.7500000000000000e-01  1.5625000000000000e-02  0.0000000000000000e+00   8.9062500000000000e-01  1.5625000000000000e-02  0.0000000000000000e+00   9.0625000000000000e-01  1.5625000000000000e-02  0.0000000000000000e+00   9.2187500000000000e-01  1.5625000000000000e-02  0.0000000000000000e+00   9.3750000000000000e-01  1.5625000000000000e-02  0.0000000000000000e+00   9.5312500000000000e-01  1.5625000000000000e-02  0.0000000000000000e+00   9.6875000000000000e-01  1.5625000000000000e-02  0.0000000000000000e+00   9.8437500000000000e-01  1.5625000000000000e-02  0.0000000000000000e+00   1.0000000000000000e+00  1.5625000000000000e-02  0.0000000000000000e+00   0.0000000000000000e+00  3.1250000000000000e-02  0.0000000000000000e+00   1.5625000000000000e-02  3.1250000000000000e-02  0.0000000000000000e+00   3.1250000000000000e-02  3.1250000000000000e-02  0.0000000000000000e+00   4.6875000000000000e-02  3.1250000000000000e-02  0.0000000000000000e+00  
[...]
<PointData Scalars="scalars">
<DataArray type="Float64" Name="Solution Component 0 - ux" Format="ascii">  1.5344526915052623e-05  -1.0231021888135648e-04  -1.1641791698102163e-04  -1.2143074541496912e-04  -1.2379930217246209e-04  -1.2505561536472025e-04  -1.2569080102529302e-04  -1.2594861619989392e-04  -1.2596535152832667e-04  -1.2581628733147597e-04  -1.2554384948130798e-04  -1.2517297024098898e-04  -1.2471899815641509e-04  -1.2419183836254844e-04  -1.2359819880674566e-04  -1.2294285289929892e-04  -1.2222937309417308e-04  -1.2146057031615818e-04  -1.2063876463338376e-04  -1.1976595623765226e-04  -1.1884393586518220e-04  -1.1787435748355172e-04  -1.1685878688861739e-04  -1.1579873457139987e-04  -1.1469567808836812e-04  -1.1355107729611921e-04  -1.1236638463130901e-04  -1.1114305188117495e-04  -1.0988253444160839e-04  -1.0858629371925017e-04  -1.0725579813972284e-04  -1.0589252310028154e-04  -1.0449795007742999e-04  -1.0307356504649409e-04  -1.0162085632268445e-04  -1.0014131188118391e-04  -9.8636416172589970e-05  -9.7107646447487693e-05  -9.5556468534112825e-05  -9.3984331982182562e-05  -9.2392664445519593e-05  -9.0782865051142344e-05  -8.9156296351295769e-05  -8.7514274161838837e-05  -8.5858053966744136e-05  -8.4188811375649774e-05  -8.2507611677935965e-05  -8.0815358436513087e-05  -7.9112700838126056e-05  -7.7399857669714555e-05  -7.5676274968056067e-05  -7.3939936509245422e-05  -7.2186012700428481e-05  -7.0404010151480146e-05  -6.8572600849857072e-05  -6.6647092795601580e-05  -6.4543835713470359e-05  -6.2074148978254689e-05  -5.8966575495380006e-05  -5.4303651542828395e-05  -4.7736762919167767e-05  -3.1831061599834378e-05  -1.7449962814318763e-05   6.1793884840454050e-05  -1.6717689437532559e-04   6.7596369987190240e-05   2.2076797459158446e-04   4.3271893985337325e-04   6.5478312154463073e-04   8.8625616975939901e-04   1.1220198176093185e-03   1.3600671443519960e-03   1.5993484042671467e-03   1.8392612768412303e-03   2.0794263029453356e-03   2.3195846276124620e-03   2.5595473909977781e-03   2.7991682687090649e-03   3.0383277416160086e-03   3.2769237482867955e-03   3.5148659527592728e-03   3.7520721272840908e-03   3.9884658097236554e-03   4.2239747506080611e-03   4.4585298619842558e-03   4.6920644927227681e-03   4.9245139208879884e-03   5.1558149934067829e-03   5.3859058676028367e-03   5.6147258244523615e-03   5.8422151332240407e-03   6.0683149535614945e-03   6.2929672653264292e-03   6.5161148194169032e-03   6.7377011047711722e-03   6.9576703281678228e-03   7.1759674044618348e-03   7.3925379556543493e-03   7.6073283177745454e-03   7.8202855550577339e-03   8.0313574813243131e-03   8.2404926888933385e-03   8.4476405858172742e-03   8.6527514427607137e-03   8.8557764515030338e-03   9.0566677979475839e-03   9.2553787537462216e-03   9.4518637924183857e-03   9.6460787384671214e-03   9.8379809619469037e-03   1.0027529637048395e-02   1.0214686092897114e-02   1.0399414300135218e-02   1.0581681561607487e-02   1.0761459515986567e-02   1.0938725627385565e-02   1.1113465443169433e-02   1.1285676049030666e-02   1.1455371472140324e-02   1.1622590823687414e-02   1.1787411591218457e-02   1.1949965678222478e-02   1.2110476113579629e-02   1.2269248230283390e-02   1.2426881493610976e-02   1.2583516603663714e-02   1.2741032756542252e-02   1.2888605367681261e-02   1.3043248886035974e-02   1.2980750924963170e-02   7.4927959764672084e-05   4.6639690439032402e-04   9.4486662768350916e-04   1.4148020151528930e-03   1.8882687683967926e-03   2.3645468595023954e-03   2.8430326267772262e-03   3.3228094072556167e-03   3.8032003429999510e-03   4.2837055341245125e-03   4.7639442716260324e-03   5.2436152656295367e-03   5.7224704133961293e-03   6.2002977393331039e-03   6.6769102511920458e-03   7.1521385782920199e-03   7.6258260415072868e-03   8.0978253036220905e-03   8.5679960601938599e-03   9.0362034253893570e-03   9.5023167890048374e-03   9.9662089977945179e-03   1.0427755763357178e-02   1.0886835230612787e-02   1.1343327661759684e-02   1.1797115204456511e-02   1.2248081722319277e-02   1.2696112672233660e-02   1.3141095017409891e-02   1.3582917168242762e-02   1.4021468945293158e-02   1.4456641560348562e-02   1.4888327612760762e-02   1.5316421099237015e-02   1.5740817436053840e-02   1.6161413493358999e-02   1.6578107641908368e-02   1.6990799813265990e-02   1.7399391575284202e-02   1.7803786225635714e-02   1.8203888907382140e-02   1.8599606752179011e-02   1.8990849058947382e-02   1.9377527518929495e-02   1.9759556502429155e-02   2.0136853428786804e-02   2.0509339249994287e-02   2.0876939090829261e-02   2.1239583105343133e-02   2.1597207631674317e-02   2.1949756750907747e-02   2.2297184379256634e-02   2.2639456993557912e-02   2.2976557059434702e-02   2.3308486580415289e-02   2.3635270528355231e-02   2.3956952671625353e-02   2.4273592371196917e-02   2.4585173463301239e-02   2.4891645435382907e-02   2.5191811903210168e-02   2.5485370247685206e-02   2.5760015689425840e-02   2.6041094616696930e-02   2.6116941679659781e-02   7.5751956873522868e-05   7.0683904561900089e-04   1.4412672491786170e-03   2.1598303713161750e-03   2.8799069888505459e-03   3.6001737341574886e-03   4.3211907877682325e-03   5.0426925386625621e-03   5.7642959901352923e-03   6.4855800041671184e-03   7.2061550800642422e-03   7.9256740182395841e-03   8.6438272517116322e-03   9.3603354455753865e-03   1.0074942697921873e-02   1.0787411076722838e-02   1.1497516454056835e-02   1.2205045399711784e-02   1.2909792884672875e-02   1.3611560586467078e-02   1.4310155636707499e-02   1.5005389692669867e-02   1.5697078246865011e-02   1.6385040112350799e-02   1.7069097038750255e-02   1.7749073426321038e-02   1.8424796114314121e-02   1.9096094226245090e-02   1.9762799059327187e-02   2.0424744008705094e-02   2.1081764519615683e-02   2.1733698062470719e-02   2.2380384127302585e-02   2.3021664235127078e-02   2.3657381964701248e-02   2.4287382993956375e-02   2.4911515156099930e-02   2.5529628511095491e-02   2.6141575433992030e-02   2.6747210722405296e-02   2.7346391726455040e-02   2.7938978505669475e-02   2.8524834018842666e-02   2.9103824354634135e-02   2.9675819012816088e-02   3.0240691248334683e-02   3.0798318492229273e-02   3.1348582863641485e-02   3.1891371782463880e-02   3.2426578676388311e-02   3.2954103733855690e-02   3.3473854564168175e-02   3.3985746405845021e-02   3.4489701179496360e-02   3.4985643557764276e-02   3.5473491853505033e-02   3.5953133518964314e-02   3.6424389808041205e-02   3.6886879710785359e-02   3.7340019429615116e-02   3.7782022387231141e-02   3.8212610730987959e-02   3.8621978958378260e-02   3.9040813919215378e-02   3.9254543700354957e-02   7.5071645587800409e-05   9.4885661246972520e-04   1.9317554768292979e-03   2.8977975071946042e-03   3.8645265314582130e-03   4.8295552223939775e-03   5.7941331936601469e-03   6.7582226210354144e-03   7.7216463395337002e-03   8.6841013328475061e-03   9.6452468235357584e-03   1.0604735503206088e-02   1.1562229242940345e-02   1.2517404344308265e-02   1.3469951979094343e-02   1.4419576807828420e-02   1.5365995106365670e-02   1.6308932942091414e-02   1.7248124590487100e-02   1.8183311232207656e-02   1.9114239911187762e-02   2.0040662715095137e-02   2.0962336137331374e-02   2.1879020584091226e-02   2.2790479996120171e-02   2.3696481560821159e-02   2.4596795495567033e-02   2.5491194887348634e-02   2.6379455577302646e-02   2.7261356081331154e-02   2.8136677540115864e-02   2.9005203693474691e-02   2.9866720875293556e-02   3.0721018026290799e-02   3.1567886722719325e-02   3.2407121219796789e-02   3.3238518509247160e-02   3.4061878390866163e-02   3.4877003558475152e-02   3.5683699701031760e-02   3.6481775620002002e-02   3.7271043364263998e-02   3.8051318383711702e-02   3.8822419702076470e-02   3.9584170107730972e-02   4.0336396357449004e-02   4.1078929380430076e-02   4.1811604455034755e-02   4.2534261302531913e-02   4.3246743990264923e-02   4.3948900440475488e-02   4.4640581174043993e-02   4.5321636600495797e-02   4.5991911717743014e-02   4.6651235942337138e-02   4.7299405623052869e-02   4.7936150009818213e-02   4.8561089262929277e-02   4.9173612426720879e-02   4.9772953393665713e-02   5.0357453371102076e-02   5.0927690016011988e-02   5.1475799426797572e-02   5.2033264477607755e-02   5.2385672483012603e-02   7.3780895564990441e-05   1.1917487247672964e-03   2.4196992020791880e-03   3.6316210862455491e-03   4.8440930748226930e-03   6.0538628339975387e-03   7.2622810744299776e-03   8.4692861997169404e-03   9.6748217697739634e-03   1.0878661178015645e-02   1.2080504470546217e-02   1.3280013466851799e-02   1.4476835756639416e-02   1.5670616883561812e-02   1.6861006385325582e-02   1.8047660386538527e-02   1.9230242371873447e-02   2.0408423077198867e-02   2.1581880004520316e-02   2.2750296819380171e-02   2.3913362755165833e-02   2.5070772078292176e-02   2.6222223632438715e-02   2.7367420462768115e-02   2.8506069513493725e-02   2.9637881389487697e-02   3.0762570172350907e-02   3.1879853282154966e-02   3.2989451377232575e-02   3.4091088285631781e-02   3.5184490963007145e-02   3.6269389472718856e-02   3.7345516984764772e-02   3.8412609790876205e-02   3.9470407333663714e-02   4.0518652248127146e-02   4.1557090414162834e-02   4.2585471018846598e-02   4.3603546627268501e-02   4.4611073260456040e-02   4.5607810478320750e-02   4.6593521464427655e-02   4.7567973107384122e-02   4.8530936070211708e-02   4.9482184833298262e-02   5.0421497686916332e-02   5.1348656633287651e-02   5.2263447131692738e-02   5.3165657576430353e-02   5.4055078326354936e-02   5.4931499988989330e-02   5.5794710485244398e-02   5.6644490130285309e-02   5.7480603640502802e-02   5.8302787205285728e-02   5.9110729441441662e-02   5.9904040488730111e-02   6.0682225193071607e-02   6.1444606265837434e-02   6.2190492178617530e-02   6.2918603383743679e-02   6.3630217070696299e-02   6.4318351055018180e-02   6.5013935059229394e-02   6.5503200276486567e-02   7.2063220439448384e-05   1.4347665091291610e-03   2.9063895606554683e-03   4.3629283265351438e-03   5.8201052693973620e-03   7.2740967833247036e-03   8.7261071828385502e-03   1.0175957605694586e-02   1.1623605873306492e-02   1.3068833664464548e-02   1.4511352282860651e-02   1.5950822262243907e-02   1.7386876082629722e-02   1.8819132068505020e-02   2.0247203184962783e-02   2.1670702155172722e-02   2.3089244274862811e-02   2.4502448840811208e-02   2.5909939776525458e-02   2.7311345814074000e-02   2.8706300446039425e-02   3.0094441771251233e-02   3.1475412303419152e-02   3.2848858779612022e-02   3.4214431986937861e-02   3.5571786615293685e-02   3.6920581138346474e-02   3.8260477721929684e-02   3.9591142157641750e-02   4.0912243818904279e-02   4.2223455636645091e-02   4.3524454091906618e-02   4.4814919222902205e-02   4.6094534644242846e-02   4.7362987576208437e-02   4.8619968882002790e-02   4.9865173110834105e-02   5.1098298544383726e-02   5.2319047243678224e-02   5.3527125092425361e-02   5.4722241831345379e-02   5.5904111075649930e-02   5.7072450304110879e-02   5.8226980802471941e-02   5.9367427535218890e-02   6.0493518906321465e-02   6.1604986349081077e-02   6.2701563654151110e-02   6.3782985898104036e-02   6.4848987766554955e-02   6.5899300967578220e-02   6.6933650304409120e-02   6.7951747805982260e-02   6.8953284239676130e-02   6.9937917077661144e-02   7.0905255566768216e-02   7.1854840757532693e-02   7.2786141430864079e-02   7.3698519548081001e-02   7.4591448661014179e-02   7.5463988799830226e-02   7.6317782350624558e-02   7.7146187950419234e-02   7.7979263343331454e-02   7.8605205711229864e-02   6.9975688147353926e-05   1.6776046450201730e-03   3.3921565154874022e-03   5.0923465587932489e-03   6.7932870981544345e-03   8.4908273994131478e-03   1.0185952181468129e-02   1.1878331260531654e-02   1.3567863789513105e-02   1.5254293648733557e-02   1.6937313340233850e-02   1.8616563766010508e-02   2.0291653286712601e-02   2.1962169793650687e-02   2.3627689658179917e-02   2.5287783741160558e-02   2.6942021310823516e-02   2.8589972501305010e-02   3.0231209800067958e-02   3.1865308910724741e-02   3.3491849225744504e-02   3.5110414062897548e-02   3.6720590764023953e-02   3.8321970717960556e-02   3.9914149345597928e-02   4.1496726069808372e-02   4.3069304283388385e-02   4.4631491322197812e-02   4.6182898447042382e-02   4.7723140835624449e-02   4.9251837584567880e-02   5.0768611720743574e-02   5.2273090220618990e-02   5.3764904036005728e-02   5.5243688124270864e-02   5.6709081480701876e-02   5.8160727170205928e-02   5.9598272354810022e-02   6.1021368312348008e-02   6.2429670440168610e-02   6.3822838235433027e-02   6.5200535240270807e-02   6.6562428935283760e-02   6.7908190557989953e-02   6.9237494812834657e-02   7.0550019425141539e-02   7.1845444471195397e-02   7.3123451388603058e-02   7.4383721533308994e-02   7.5625934101843179e-02   7.6849763181712355e-02   7.8054873647975379e-02   7.9240915603797979e-02   8.0407517241180351e-02   8.1554276160393194e-02   8.2680751259498544e-02   8.3786455141370633e-02   8.4870868805198646e-02   8.5933431842447824e-02   8.6973770462237296e-02   8.7991167627289354e-02   8.8987393222854400e-02   8.9955938515881267e-02   9.0925918312849519e-02   9.1688414696044371e-02   6.7546505977160242e-05   1.9201259159409684e-03   3.8770104842032137e-03   5.8200913753352190e-03   7.7639807574634021e-03   9.7043605007257009e-03   1.1642003910866545e-02   1.3576433061030107e-02   1.5507454325563186e-02   1.7434746140260398e-02   1.9357956786100437e-02   2.1276689593446765e-02   2.3190517601348649e-02   2.5098991847628063e-02   2.7001648964886878e-02   2.8898016879060292e-02   3.0787618968028629e-02   3.2669976979831948e-02   3.4544613029402829e-02   3.6411050936383270e-02   3.8268817105766163e-02   4.0117441098952857e-02   4.1956455999566690e-02   4.3785398646001887e-02   4.5603809779435345e-02   4.7411234139731799e-02   4.9207220530481863e-02   5.0991321866818727e-02   5.2763095214536489e-02   5.4522101825591723e-02   5.6267907172769423e-02   5.8000080984690554e-02   5.9718197281204803e-02   6.1421834408340592e-02   6.3110575071211525e-02   6.4784006362504587e-02   6.6441719783303987e-02   6.8083311251888531e-02   6.9708381094688771e-02   7.1316534011633320e-02   7.2907379005418008e-02   7.4480529260555914e-02   7.6035601953016771e-02   7.7572217964389054e-02   7.9090001465217857e-02   8.0588579319906622e-02   8.2067580249800723e-02   8.3526633671886619e-02   8.4965368109330183e-02   8.6383409051729657e-02   8.7780376137525609e-02   8.9155879567090771e-02   9.0509515758394318e-02   9.1840862598290052e-02   9.3149474993443504e-02   9.4434883499048577e-02   9.5696596396398242e-02   9.6934125025774379e-02   9.8146982708590166e-02   9.9334900389570630e-02   1.0049728193476699e-01   1.0163588949768532e-01   1.0274428018499532e-01   1.0385060688573786e-01   1.0474961833557249e-01   6.4793873314630154e-05   2.1622405378048152e-03   4.3608753522039563e-03   6.5461817671115183e-03   8.7322792426707679e-03   1.0914784935130144e-02   1.3094293903619218e-02   1.5270196627389499e-02   1.7442195462502374e-02   1.9609889195944873e-02   2.1772865154272708e-02   2.3930675573660243e-02   2.6082847906405107e-02   2.8228889225627142e-02   3.0368291946409266e-02   3.2500538513345840e-02   3.4625105193230879e-02   3.6741464984569240e-02   3.8849089787318131e-02   4.0947451986649487e-02   4.3036025592544075e-02   4.5114287052582670e-02   4.7181715829545418e-02   4.9237794812672604e-02   5.1282010612951116e-02   5.3313853778528771e-02   5.5332818955709309e-02   5.7338405013174956e-02   5.9330115141446656e-02   6.1307456935546505e-02   6.3269942465898107e-02   6.5217088340356430e-02   6.7148415758650423e-02   6.9063450559211259e-02   7.0961723257231296e-02   7.2842769071714816e-02   7.4706127938106714e-02   7.6551344501728014e-02   7.8377968085597050e-02   8.0185552624088940e-02   8.1973656551168492e-02   8.3741842628420868e-02   8.5489677693565955e-02   8.7216732304423006e-02   8.8922580246244054e-02   9.0606797862088820e-02   9.2268963157120326e-02   9.3908654620148926e-02   9.5525449703269177e-02   9.7118922911046623e-02   9.8688643487826924e-02   1.0023417278496101e-01   1.0175506156051441e-01   1.0325084785254732e-01   1.0472105639927551e-01   1.0616520234137133e-01   1.0758279900051522e-01   1.0897338671807684e-01   1.1033653113262655e-01   1.1167201912386353e-01   1.1297930560572444e-01   1.1426007361078802e-01   1.1550793777897649e-01   1.1675008313994580e-01   1.1778558035387943e-01   6.1731632506564413e-05   2.4038744498046053e-03   4.8436504931325215e-03   7.2705405022619593e-03   9.6981356785247400e-03   1.2122053475564528e-02   1.4542740576932041e-02   1.6959474345461346e-02   1.9371854530211140e-02   2.1779395473259407e-02   2.4181614429226166e-02   2.6578003471327341e-02   2.8968036384817392e-02   3.1351169966475002e-02   3.3726847846047923e-02   3.6094503897526962e-02   3.8453565346618646e-02   4.0803455362810263e-02   4.3143595143727731e-02   4.5473405545421841e-02   4.7792308335164360e-02   5.0099727143678482e-02   5.2395088185163918e-02   5.4677820801719526e-02   5.6947357877004508e-02   5.9203136153588090e-02   6.1444596479828653e-02   6.3671184005293008e-02   6.5882348338435398e-02   6.8077543676185848e-02   7.0256228911999105e-02   7.2417867726527585e-02   7.4561928663184868e-02   7.6687885189306831e-02   7.8795215742260158e-02   8.0883403758547065e-02   8.2951937682633689e-02   8.5000310950783017e-02   8.7028021943490311e-02   8.9034573898121347e-02   9.1019474770956288e-02   9.2982237034948734e-02   9.4922377396123608e-02   9.6839416407741435e-02   9.8732877957443288e-02   1.0060228859931804e-01   1.0244717670169132e-01   1.0426707138525264e-01   1.0606150123989343e-01   1.0782999284099901e-01   1.0957206914937177e-01   1.1128724799739095e-01   1.1297504104546145e-01   1.1463495393931188e-01   1.1626648859771044e-01   1.1786914992234102e-01   1.1944245585947456e-01   1.2098596524692545e-01   1.2249927164338827e-01   1.2398217941218304e-01   1.2543415152198084e-01   1.2685675634313467e-01   1.2824368246761811e-01   1.2962113960207264e-01   1.3079309696821173e-01   5.8371672804893294e-05   2.6449604550424690e-03   5.3252265832806067e-03   7.9930440752519309e-03   1.0661425887277380e-02   1.3326031225459766e-02   1.5987179004375098e-02   1.8644050620661066e-02   2.1296149704795802e-02   2.3942906574860399e-02   2.6583764556331487e-02   2.9218150276890047e-02   3.1845478304336192e-02   3.4465150260906754e-02   3.7076557011715562e-02   3.9679080852039146e-02   4.2272097831784414e-02   4.4854979872063258e-02   4.7427096600906916e-02   4.9987816884511219e-02   5.2536510073965051e-02   5.5072547004474802e-02   5.7595300788974825e-02   6.0104147446051713e-02   6.2598466397130181e-02   6.5077640861917987e-02   6.7541058175326310e-02   6.9988110043941690e-02   7.2418192755767039e-02   7.4830707353370163e-02   7.7225059777686650e-02   7.9600660987355853e-02   8.1956927056528905e-02   8.4293279252454223e-02   8.6609144092678919e-02   8.8903953380352799e-02   9.1177144214783817e-02   9.3428158972990658e-02   9.5656445256488490e-02   9.7861455795891186e-02   1.0004264830408253e-01   1.0219948526677756e-01   1.0433143365740571e-01   1.0643796456170382e-01   1.0851855269686554e-01   1.1057267581166104e-01   1.1259981395952658e-01   1.1459944864937331e-01   1.1657106190359570e-01   1.1851413529682266e-01   1.2042814912122113e-01   1.2231258193989465e-01   1.2416691094283534e-01   1.2599061378010221e-01   1.2778317258915503e-01   1.2954408194999836e-01   1.3127285896332475e-01   1.3296906794099417e-01   1.3463230917916300e-01   1.3626237747918285e-01   1.3785871938354213e-01   1.3942277257161431e-01   1.4094832531963200e-01   1.4246059804607258e-01   1.4376897620968943e-01   5.4725100192170514e-05   2.8854348400355417e-03   5.8054907199875895e-03   8.7135462816276491e-03   1.1621982340554315e-02   1.4526528008030165e-02   1.7427386934743657e-02   2.0323658572582930e-02   2.3214757873319142e-02   2.6100034129409169e-02   2.8978856175034477e-02   3.1850582726957184e-02   3.4714565773977857e-02   3.7570148327521306e-02   4.0416665377173387e-02   4.3253445060055587e