<VTKFile type="UnstructuredGrid" version="0.1" byte_order="LittleEndian">
<UnstructuredGrid>
<Piece NumberOfPoints="289" NumberOfCells="512">
<Points>
<DataArray type="Float64" NumberOfComponents="3" Format="ascii">  0.0000000000000000e+00  0.0000000000000000e+00  0.0000000000000000e+00   6.2500000000000000e-02  0.0000000000000000e+00  0.0000000000000000e+00   1.2500000000000000e-01  0.0000000000000000e+00  0.0000000000000000e+00   1.8750000000000000e-01  0.0000000000000000e+00  0.0000000000000000e+00   2.5000000000000000e-01  0.0000000000000000e+00  0.0000000000000000e+00   3.1250000000000000e-01  0.0000000000000000e+00  0.0000000000000000e+00   3.7500000000000000e-01  0.0000000000000000e+00  0.0000000000000000e+00   4.3750000000000000e-01  0.0000000000000000e+00  0.0000000000000000e+00   5.0000000000000000e-01  0.0000000000000000e+00  0.0000000000000000e+00   5.6250000000000000e-01  0.0000000000000000e+00  0.0000000000000000e+00   6.2500000000000000e-01  0.0000000000000000e+00  0.0000000000000000e+00   6.8750000000000000e-01  0.0000000000000000e+00  0.0000000000000000e+00   7.5000000000000000e-01  0.0000000000000000e+00  0.0000000000000000e+00   8.1250000000000000e-01  0.0000000000000000e+00  0.0000000000000000e+00   8.7500000000000000e-01  0.0000000000000000e+00  0.0000000000000000e+00   9.3750000000000000e-01  0.0000000000000000e+00  0.0000000000000000e+00   1.0000000000000000e+00  0.0000000000000000e+00  0.0000000000000000e+00   0.0000000000000000e+00  6.2500000000000000e-02  0.0000000000000000e+00   6.2500000000000000e-02  6.2500000000000000e-02  0.0000000000000000e+00   1.2500000000000000e-01  6.2500000000000000e-02  0.0000000000000000e+00   1.8750000000000000e-01  6.2500000000000000e-02  0.0000000000000000e+00   2.5000000000000000e-01  6.2500000000000000e-02  0.0000000000000000e+00   3.1250000000000000e-01  6.2500000000000000e-02  0.0000000000000000e+00   3.7500000000000000e-01  6.2500000000000000e-02  0.0000000000000000e+00   4.3750000000000000e-01  6.2500000000000000e-02  0.0000000000000000e+00   5.0000000000000000e-01  6.2500000000000000e-02  0.0000000000000000e+00   5.6250000000000000e-01  6.2500000000000000e-02  0.0000000000000000e+00   6.2500000000000000e-01  6.2500000000000000e-02  0.0000000000000000e+00   6.8750000000000000e-01  6.2500000000000000e-02  0.0000000000000000e+00   7.5000000000000000e-01  6.2500000000000000e-02  0.0000000000000000e+00   8.1250000000000000e-01  6.2500000000000000e-02  0.0000000000000000e+00   8.7500000000000000e-01  6.2500000000000000e-02  0.0000000000000000e+00   9.3750000000000000e-01  6.2500000000000000e-02  0.0000000000000000e+00   1.0000000000000000e+00  6.2500000000000000e-02  0.0000000000000000e+00   0.0000000000000000e+00  1.2500000000000000e-01  0.0000000000000000e+00   6.2500000000000000e-02  1.2500000000000000e-01  0.0000000000000000e+00   1.2500000000000000e-01  1.2500000000000000e-01  0.0000000000000000e+00   1.8750000000000000e-01  1.2500000000000000e-01  0.0000000000000000e+00   2.5000000000000000e-01  1.2500000000000000e-01  0.0000000000000000e+00   3.1250000000000000e-01  1.2500000000000000e-01  0.0000000000000000e+00   3.7500000000000000e-01  1.2500000000000000e-01  0.0000000000000000e+00   4.3750000000000000e-01  1.2500000000000000e-01  0.0000000000000000e+00   5.0000000000000000e-01  1.2500000000000000e-01  0.0000000000000000e+00   5.6250000000000000e-01  1.2500000000000000e-01  0.0000000000000000e+00   6.2500000000000000e-01  1.2500000000000000e-01  0.0000000000000000e+00   6.8750000000000000e-01  1.2500000000000000e-01  0.0000000000000000e+00   7.5000000000000000e-01  1.2500000000000000e-01  0.0000000000000000e+00   8.1250000000000000e-01  1.2500000000000000e-01  0.0000000000000000e+00   8.7500000000000000e-01  1.2500000000000000e-01  0.0000000000000000e+00   9.3750000000000000e-01  1.2500000000000000e-01  0.0000000000000000e+00   1.0000000000000000e+00  1.2500000000000000e-01  0.0000000000000000e+00   0.0000000000000000e+00  1.8750000000000000e-01  0.0000000000000000e+00   6.2500000000000000e-02  1.8750000000000000e-01  0.0000000000000000e+00   1.2500000000000000e-01  1.8750000000000000e-01  0.0000000000000000e+00   1.8750000000000000e-01  1.8750000000000000e-01  0.0000000000000000e+00   2.5000000000000000e-01  1.8750000000000000e-01  0.0000000000000000e+00   3.1250000000000000e-01  1.8750000000000000e-01  0.0000000000000000e+00   3.7500000000000000e-01  1.8750000000000000e-01  0.0000000000000000e+00   4.3750000000000000e-01  1.8750000000000000e-01  0.0000000000000000e+00   5.0000000000000000e-01  1.8750000000000000e-01  0.0000000000000000e+00   5.6250000000000000e-01  1.8750000000000000e-01  0.0000000000000000e+00   6.2500000000000000e-01  1.8750000000000000e-01  0.0000000000000000e+00   6.8750000000000000e-01  1.8750000000000000e-01  0.0000000000000000e+00   7.5000000000000000e-01  1.8750000000000000e-01  0.0000000000000000e+00   8.1250000000000000e-01  1.8750000000000000e-01  0.0000000000000000e+00   8.7500000000000000e-01  1.8750000000000000e-01  0.0000000000000000e+00   9.3750000000000000e-01  1.8750000000000000e-01  0.0000000000000000e+00   1.0000000000000000e+00  1.8750000000000000e-01  0.0000000000000000e+00   0.0000000000000000e+00  2.5000000000000000e-01  0.0000000000000000e+00   6.2500000000000000e-02  2.5000000000000000e-01  0.0000000000000000e+00   1.2500000000000000e-01  2.5000000000000000e-01  0.0000000000000000e+00   1.8750000000000000e-01  2.5000000000000000e-01  0.0000000000000000e+00   2.5000000000000000e-01  2.5000000000000000e-01  0.0000000000000000e+00   3.1250000000000000e-01  2.5000000000000000e-01  0.0000000000000000e+00   3.7500000000000000e-01  2.5000000000000000e-01  0.0000000000000000e+00   4.3750000000000000e-01  2.5000000000000000e-01  0.0000000000000000e+00   5.0000000000000000e-01  2.5000000000000000e-01  0.0000000000000000e+00   5.6250000000000000e-01  2.5000000000000000e-01  0.0000000000000000e+00   6.2500000000000000e-01  2.5000000000000000e-01  0.0000000000000000e+00   6.8750000000000000e-01  2.5000000000000000e-01  0.0000000000000000e+00   7.5000000000000000e-01  2.5000000000000000e-01  0.0000000000000000e+00   8.1250000000000000e-01  2.5000000000000000e-01  0.0000000000000000e+00   8.7500000000000000e-01  2.5000000000000000e-01  0.0000000000000000e+00   9.3750000000000000e-01  2.5000000000000000e-01  0.0000000000000000e+00   1.0000000000000000e+00  2.5000000000000000e-01  0.0000000000000000e+00   0.0000000000000000e+00  3.1250000000000000e-01  0.0000000000000000e+00   6.2500000000000000e-02  3.1250000000000000e-01  0.0000000000000000e+00   1.2500000000000000e-01  3.1250000000000000e-01  0.0000000000000000e+00   1.8750000000000000e-01  3.1250000000000000e-01  0.0000000000000000e+00   2.5000000000000000e-01  3.1250000000000000e-01  0.0000000000000000e+00   3.1250000000000000e-01  3.1250000000000000e-01  0.0000000000000000e+00   3.7500000000000000e-01  3.1250000000000000e-01  0.0000000000000000e+00   4.3750000000000000e-01  3.1250000000000000e-01  0.0000000000000000e+00   5.0000000000000000e-01  3.1250000000000000e-01  0.0000000000000000e+00   5.6250000000000000e-01  3.1250000000000000e-01  0.0000000000000000e+00   6.2500000000000000e-01  3.1250000000000000e-01  0.0000000000000000e+00   6.8750000000000000e-01  3.1250000000000000e-01  0.0000000000000000e+00   7.5000000000000000e-01  3.1250000000000000e-01  0.0000000000000000e+00   8.1250000000000000e-01  3.1250000000000000e-01  0.0000000000000000e+00   8.7500000000000000e-01  3.1250000000000000e-01  0.0000000000000000e+00   9.3750000000000000e-01  3.1250000000000000e-01  0.0000000000000000e+00   1.0000000000000000e+00  3.1250000000000000e-01  0.0000000000000000e+00   0.0000000000000000e+00  3.7500000000000000e-01  0.0000000000000000e+00   6.2500000000000000e-02  3.7500000000000000e-01  0.0000000000000000e+00   1.2500000000000000e-01  3.7500000000000000e-01  0.0000000000000000e+00   1.8750000000000000e-01  3.7500000000000000e-01  0.0000000000000000e+00   2.5000000000000000e-01  3.7500000000000000e-01  0.0000000000000000e+00   3.1250000000000000e-01  3.7500000000000000e-01  0.0000000000000000e+00   3.7500000000000000e-01  3.7500000000000000e-01  0.0000000000000000e+00   4.3750000000000000e-01  3.7500000000000000e-01  0.0000000000000000e+00   5.0000000000000000e-01  3.7500000000000000e-01  0.0000000000000000e+00   5.6250000000000000e-01  3.7500000000000000e-01  0.0000000000000000e+00   6.2500000000000000e-01  3.7500000000000000e-01  0.0000000000000000e+00   6.8750000000000000e-01  3.7500000000000000e-01  0.0000000000000000e+00   7.5000000000000000e-01  3.7500000000000000e-01  0.0000000000000000e+00   8.1250000000000000e-01  3.7500000000000000e-01  0.0000000000000000e+00   8.7500000000000000e-01  3.7500000000000000e-01  0.0000000000000000e+00   9.3750000000000000e-01  3.7500000000000000e-01  0.0000000000000000e+00   1.0000000000000000e+00  3.7500000000000000e-01  0.0000000000000000e+00   0.0000000000000000e+00  4.3750000000000000e-01  0.0000000000000000e+00   6.2500000000000000e-02  4.3750000000000000e-01  0.0000000000000000e+00   1.2500000000000000e-01  4.3750000000000000e-01  0.0000000000000000e+00   1.8750000000000000e-01  4.3750000000000000e-01  0.0000000000000000e+00   2.5000000000000000e-01  4.3750000000000000e-01  0.0000000000000000e+00   3.1250000000000000e-01  4.3750000000000000e-01  0.0000000000000000e+00   3.7500000000000000e-01  4.3750000000000000e-01  0.0000000000000000e+00   4.3750000000000000e-01  4.3750000000000000e-01  0.0000000000000000e+00   5.0000000000000000e-01  4.3750000000000000e-01  0.0000000000000000e+00   5.6250000000000000e-01  4.3750000000000000e-01  0.0000000000000000e+00   6.2500000000000000e-01  4.3750000000000000e-01  0.0000000000000000e+00   6.8750000000000000e-01  4.3750000000000000e-01  0.0000000000000000e+00   7.5000000000000000e-01  4.3750000000000000e-01  0.0000000000000000e+00   8.1250000000000000e-01  4.3750000000000000e-01  0.0000000000000000e+00   8.7500000000000000e-01  4.3750000000000000e-01  0.0000000000000000e+00   9
[...]
<PointData Scalars="scalars">
<DataArray type="Float64" Name="Solution Component 0 - ux" Format="ascii">  1.6973193045489318e-04  -1.6475253643224073e-03  -1.8758811420360655e-03  -1.9413804434652059e-03  -1.9471789109073239e-03  -1.9186566026219423e-03  -1.8649815791564606e-03  -1.7912731394233979e-03  -1.7003326641998092e-03  -1.5925212831402599e-03  -1.4656429113366529e-03  -1.3087335299760709e-03  -1.1137590140911833e-03  -7.7431392493495686e-04  -4.3887150803316829e-04   9.0272257427125382e-04  -2.6394973216342372e-03   9.8624987254163467e-04   3.5593160142147169e-03   6.9498812789364917e-03   1.0491105271820053e-02   1.4152067278745760e-02   1.7841134387877960e-02   2.1512866829899144e-02   2.5137268718706335e-02   2.8692868764864106e-02   3.2164028923255955e-02   3.5539936399993713e-02   3.8815734243454726e-02   4.1985218435168010e-02   4.5060547132927294e-02   4.7882905553481077e-02   5.0664726981018107e-02   4.9957824649306107e-02   9.7716434749895364e-04   7.4783286662938979e-03   1.5124794485480321e-02   2.2597743558574728e-02   3.0049550327392066e-02   3.7446715460937620e-02   4.4752372744246732e-02   5.1925618740765615e-02   5.8930709770250111e-02   6.5736458822988453e-02   7.2314875029433276e-02   7.8639302757162910e-02   8.4673148317503916e-02   9.0380500022169380e-02   9.5584072459565961e-02   1.0058033571778922e-01   1.0234018806112459e-01   7.9113473221711461e-04   1.1280231004033071e-02   2.2965407074907823e-02   3.4349771902080037e-02   4.5636414618535792e-02   5.6767463273969469e-02   6.7709510574594581e-02   7.8417952871161864e-02   8.8847430477094660e-02   9.8953060075142651e-02   1.0869049735013860e-01   1.1801371291098707e-01   1.2686779442020332e-01   1.3520318375262871e-01   1.4289051300118211e-01   1.5024758450889225e-01   1.5452097106642051e-01   5.1893337069903610e-04   1.5067945747515432e-02   3.0612619646171981e-02   4.5843682612949459e-02   6.0918499653892205e-02   7.5749788164779105e-02   9.0299074719028927e-02   1.0451061523255276e-01   1.1832777477342885e-01   1.3169304597765361e-01   1.4454860083310389e-01   1.5683511275465364e-01   1.6849108338895549e-01   1.7946638611615628e-01   1.8967235348305791e-01   1.9936608631080580e-01   2.0620691155454063e-01   1.8660501834438903e-04   1.8819970793208886e-02   3.8101157265606755e-02   5.7094853138715373e-02   7.5883115197431308e-02   9.4355976305405861e-02   1.1245956668824798e-01   1.3012319392084962e-01   1.4727819840556630e-01   1.6385512745571165e-01   1.7978508279086672e-01   1.9499959778416132e-01   2.0943472963309559e-01   2.2303729705325487e-01   2.3574393810477609e-01   2.4772294901503164e-01   2.5712808343354310e-01  -1.8906964817601261e-04   2.2512151384358699e-02   4.5430200943424454e-02   6.8096276473532891e-02   9.0509457881607108e-02   1.1254528479529165e-01   1.3413021009117160e-01   1.5517806212690874e-01   1.7560747791801756e-01   1.9533740950231265e-01   2.1428917024802474e-01   2.3238644818457202e-01   2.4956212611298398e-01   2.6575474069248584e-01   2.8091843187738985e-01   2.9512354850289219e-01   3.0709356422639295e-01  -5.9162158937877503e-04   2.6126882287821111e-02   5.2582970097221710e-02   7.8824475931110985e-02   1.0476414058298175e-01   1.3027012620036607e-01   1.5524827933955565e-01   1.7959775661320243e-01   2.0322448820249336e-01   2.2603626961679588e-01   2.4794493600224404e-01   2.6886588697948038e-01   2.8872664216886113e-01   3.0745377113543715e-01   3.2501546840253787e-01   3.4138178409363823e-01   3.5589483444193265e-01  -1.0038679356181334e-03   2.9649223076465409e-02   5.9537666096284671e-02   8.9249263232064183e-02   1.1860732153625370e-01   1.4747799847680859e-01   1.7574744617970264e-01   2.0330186692448798e-01   2.3003518276332896e-01   2.5584448536053433e-01   2.8063188516006360e-01   3.0430344527895220e-01   3.2677911420193573e-01   3.4797132927342017e-01   3.6786005575156716e-01   3.8631661070472278e-01   4.0332641660144658e-01  -1.4082143186623431e-03   3.3065272606486666e-02   6.6271613207518551e-02   9.9337438138751857e-02   1.3199469406284861e-01   1.6411170169276204e-01   1.9555696350137441e-01   2.2620601851003677e-01   2.5594193016165318e-01   2.8465155658543895e-01   3.1222684894292885e-01   3.3856345172194857e-01   3.6357173969278311e-01   3.8714865404340221e-01   4.0928326584134028e-01   4.2975297868642531e-01   4.4918718614899489e-01  -1.7869535837344418e-03   3.6361925697883483e-02   7.2762517932217760e-02   1.0905438804294808e-01   1.4487872486419803e-01   1.8010974368457372e-01   2.1460144421053204e-01   2.4822147491827201e-01   2.8084339068588365e-01   3.1234420951051567e-01   3.4260520513977066e-01   3.7151073165237314e-01   3.9895965480348100e-01   4.2483244922580399e-01   4.4912321864169163e-01   4.7152260447001870e-01   4.9328222004234296e-01  -2.1237093719704602e-03   3.9527032736612858e-02   7.8988923399061869e-02   1.1836447162033636e-01   1.5720836645643116e-01   1.9540548974228814e-01   2.3280007269587941e-01   2.6925479804988756e-01   3.0463468607705291e-01   3.3880691676944424e-01   3.7164155223369111e-01   4.0301125799468401e-01   4.3280138984608996e-01   4.6087567757839110e-01   4.8722649961334186e-01   5.1146543177642012e-01   5.3542394891906864e-01  -2.4027100312785940e-03   4.2549272199149182e-02   8.4930391347722900e-02   1.2722958899732209e-01   1.6892613775167784e-01   2.0992446600291251e-01   2.5006521648592217e-01   2.8920771704153853e-01   3.2720798315515554e-01   3.6392265522235751e-01   3.9921029505764200e-01   4.3293211905589152e-01   4.6495820376639330e-01   4.9513758534921082e-01   5.2344936752094151e-01   5.4943314233735330e-01   5.7543323399038293e-01  -2.6308682186067188e-03   4.5421695648009255e-02   9.0568435882179874e-02   1.3560371360759352e-01   1.7996114980555311e-01   2.2358047511888540e-01   2.6630202336400666e-01   3.0797873174933715e-01   3.4845467100130939e-01   3.8757463926827446e-01   4.2518596707116812e-01   4.6113945134951079e-01   4.9529066235879027e-01   5.2748073479830304e-01   5.5765597829271096e-01   5.8529881232773451e-01   6.1313969963799964e-01  -2.7351439179870373e-03   4.8151647269315000e-02   9.5879025376253271e-02   1.4340983272663760e-01   1.9021287257745539e-01   2.3626972839733865e-01   2.8140838335049689e-01   3.2546511905281211e-01   3.6826766645568743e-01   4.0964811674424828e-01   4.4944381329616662e-01   4.8749781053922159e-01   5.2365720302788044e-01   5.5776359568724077e-01   5.8970801906206138e-01   6.1897698367589093e-01   6.4837728587886279e-01  -2.6341911054643501e-03   5.0817568820943917e-02   1.0077283723438421e-01   1.5049560880575072e-01   1.9954677733415382e-01   2.4788470343661870e-01   2.9529263721299143e-01   3.4157975846164712e-01   3.8655657400863541e-01   4.3004369537508030e-01   4.7187010274767105e-01   5.1187327054677212e-01   5.4989844797227616e-01   5.8579647380205424e-01   6.1942623834223498e-01   6.5041970584388653e-01   6.8095089504496986e-01  -2.6602961971618653e-03   5.3577933829417571e-02   1.0480183136629807e-01   1.5662619719235535e-01   2.0782708400209987e-01   2.5835687983942024e-01   3.0790859424511507e-01   3.5628203051858548e-01   4.0327681605186749e-01   4.4870716598982402e-01   4.9239556300812748e-01   5.3417341537048990e-01   5.7388140821370115e-01   6.1137155377129271e-01   6.4651057400235168e-01   6.7919149630002618e-01   7.1037232144588303e-01 </DataArray>
<DataArray type="Float64" Name="Solution Component 1 - uy" Format="ascii">  1.0030108678451521e+00   1.0005241832070810e+00   9.9453607900327246e-01   9.8465840984808617e-01   9.7090808386844829e-01   9.5334208301177048e-01   9.3203588431693896e-01   9.0708040872465256e-01   8.7858098777274207e-01   8.4665656083906482e-01   8.1143938815982497e-01   7.7307213645370265e-01   7.3171307965774346e-01   6.8746904722430124e-01   6.4053335068727602e-01   5.9055611623853510e-01   5.4173772472602744e-01   1.0004237418443556e+00   9.9724538781913419e-01   9.9098310139919621e-01   9.8112133447708427e-01   9.6751037523722339e-01   9.5015235723666058e-01   9.2910039189985150e-01   9.0442989469825452e-01   8.7623246008304501e-01   8.4461387811343158e-01   8.0969263714504647e-01   7.7159852294757048e-01   7.3046939245281761e-01   6.8645350101844693e-01   6.3972164431121592e-01   5.9068467816910197e-01   5.4028826340375313e-01   9.9422419121988226e-01   9.9192145107260477e-01   9.8573211695454932e-01   9.7579648265010677e-01   9.6214269199658320e-01   9.4479097624426089e-01   9.2378462833371056e-01   8.9919033602994181e-01   8.7109414596439638e-01   8.3959794218523298e-01   8.0481747489528144e-01   7.6688184198394937e-01   7.2593553288866419e-01   6.8215330595731249e-01   6.3578134617674009e-01   5.8723992592911145e-01   5.3704324147478133e-01   9.8433399947043421e-01   9.8225130404452332e-01   9.7618065578707980e-01   9.6632712178516589e-01   9.5276673753628749e-01   9.3554053760237055e-01   9.1470118078055296e-01   8.9031643918445991e-01   8.6246995467525633e-01   8.3126082340383578e-01   7.9680360036280373e-01   7.5923013964415387e-01   7.1869548564427888e-01   6.7539466149347049e-01   6.2958090635778163e-01   5.8158951350821786e-01   5.3178013818550074e-01   9.7068755348301905e-01   9.6866255427676584e-01   9.6275869014977744e-01   9.5307095423316968e-01   9.3968957491510607e-01   9.2267631657846283e-01   9.0209607658333402e-01   8.7802086577823335e-01   8.5053508855404092e-01   8.1973772134465805e-01   7.8574409940560741e-01   7.4868909684110674e-01   7.0873264463374852e-01   6.6606954899959181e-01   6.2092748590883418e-01   5.7357494835687151e-01   5.2430172864567615e-01   9.5329184885456575e-01   9.5127840258267138e-01   9.4551201235018001e-01   9.3601881383847396e-01   9.2288024762298460e-01   9.0616548409244069e-01   8.8594372957637191e-01   8.6228928457694465e-01   8.3528759422328569e-01   8.0503792574140642e-01   7.7165581412021689e-01   7.3527605268254170e-01   6.9605585138858372e-01   6.5417865788001994e-01   6.0984510479020015e-01   5.6328486962570590e-01   5.1476915825582803e-01   9.3219783886041097e-01   9.3018206951334714e-01   9.2454275422073384e-01   9.1527246445150756e-01   9.0243394849256398e-01   8.8609499143159787e-01   8.6632413803512476e-01   8.4319612966308521e-01   8.1679634006113100e-01   7.8722331654553812e-01   7.5459108574512335e-01   7.1903114152415859e-01   6.8069346969855826e-01   6.3974748369024870e-01   5.9637242570837279e-01   5.5077399146775330e-01   5.0321297766077311e-01   9.0748139817742801e-01   9.0545837415260488e-01   8.9994798484441418e-01   8.9092512948936053e-01   8.7843615664572461e-01   8.6254308583100292e-01   8.4331015848298407e-01   8.2080973739392460e-01   7.9512508275649518e-01   7.6635245254695228e-01   7.3460259327849098e-01   7.0000151164197233e-01   6.6269012835504648e-01   6.2282415312458894e-01   5.8056581732173251e-01   5.3610320030090619e-01   4.8968949241766913e-01   8.7923480197796944e-01   8.7720195726942451e-01   8.7182864430452844e-01   8.6307994984720982e-01   8.5098877326957345e-01   8.3560830724992852e-01   8.1699564809730107e-01   7.9521834159139526e-01   7.7035586078344243e-01   7.4250089963165744e-01   7.1175973533215475e-01   6.7825181957416980e-01   6.4210856488958401e-01   6.0347270932698860e-01   5.6249168761273094e-01   5.1933825203062101e-01   4.7425765325727487e-01   8.4756404420357168e-01   8.4551892984392008e-01   8.4029447754796649e-01   8.3184982479720770e-01   8.2020479942321778e-01   8.0540118223342971e-01   7.8748665869503143e-01   7.6652220144019367e-01   7.4258246431987107e-01   7.1575593742440813e-01   6.8614401109510792e-01   6.5385936298416958e-01   6.1902411665989854e-01   5.8176844308527109e-01   5.4222548684414740e-01   5.0055194749652754e-01   4.5698295903608055e-01   8.1258721482696716e-01   8.1052669228056418e-01   8.0546593402815958e-01   7.9735900970828033e-01   7.8621008534862213e-01   7.7204613142975564e-01   7.5490335970763334e-01   7.3483534404408912e-01   7.1191190108349134e-01   6.8621756005544332e-01   6.5784914298828245e-01   6.2691300589010013e-01   5.9352272814684826e-01   5.5779600795831896e-01   5.1985131367230586e-01   4.7982483358974942e-01   4.3793729428876199e-01   7.7443477162992624e-01   7.7235383881606534e-01   7.6747553043383898e-01   7.5974542008510482e-01   7.4914520463746270e-01   7.3568194464067738e-01   7.1937910961962992e-01   7.0028374045741804e-01   6.7846214741687227e-01   6.5399595905711227e-01   6.2697828272324119e-01   5.9751020239606534e-01   5.6569791673536318e-01   5.3164682576676725e-01   4.9546091726477942e-01   4.5724626642922889e-01   4.1719977687848647e-01   7.3324257165117568e-01   7.3113650725772794e-01   7.2646721016627458e-01   7.1916290438575625e-01   7.0916769899655296e-01   6.9646273366378952e-01   6.8106069815955572e-01   6.6300577323443743e-01   6.4236329589004726e-01   6.1921326667237320e-01   5.9364587965441729e-01   5.6575804193327428e-01   5.3564987080644977e-01   5.0341670648549819e-01   4.6915103745335640e-01   4.3291617358353812e-01   3.9485896634803369e-01   6.8918064930688749e-01   6.8702457518089466e-01   6.8261023906332008e-01   6.7579519134866595e-01   6.6645868852473844e-01   6.5455731421375019e-01   6.4010324770926874e-01   6.2314449040888198e-01   6.0374788863759365e-01   5.8199226106527391e-01   5.5796500803184745e-01   5.3175971316632209e-01   5.0347283479256077e-01   4.7319615889312955e-01   4.4101480366063223e-01   4.0694593550919317e-01   3.7102106526586820e-01   6.4228394435194591e-01   6.4012985760996122e-01   6.3607629909332997e-01   6.2983122883794851e-01   6.2119357075527215e-01   6.1012682727426559e-01   5.9666156095241074e-01   5.8085408699337449e-01   5.6277175630212173e-01   5.4249004028992620e-01   5.2009161063875486e-01   4.9566563388885376e-01   4.6930594412630972e-01   4.4110591143460981e-01   4.1114889237221081e-01   3.7944509401320536e-01   3.4583773607535279e-01   5.9296347465652144e-01   5.9083752000772394e-01   5.8729295586323682e-01   5.8162761215955583e-01   5.7365257833586858e-01   5.6340260667305075e-01   5.5093101434313008e-01   5.3629736661746330e-01   5.1956507246082861e-01   5.0080379830288602e-01   4.8008993880481149e-01   4.5750689625957258e-01   4.3314517864966562e-01   4.0710275314664607e-01   3.7948444639392037e-01   3.5038499799011458e-01   3.1958472017542938e-01   5.4171692585144637e-01   5.3796410048582677e-01   5.3545801871093202e-01   5.3031720793139925e-01   5.2310345807602854e-01   5.1382034365760088e-01   5.0255887033328583e-01   4.8935351208373440e-01   4.7425070324942270e-01   4.5730160096708067e-01   4.3856459463102615e-01   4.1810473912446217e-01   3.9599378323325163e-01   3.7230984494470465e-01   3.4713595748045556e-01   3.2055953802777537e-01   2.9280827832589529e-01 </DataArray>
</PointData>
<CellData Scalars="scalars">