<VTKFile type="UnstructuredGrid" version="0.1" byte_order="LittleEndian">
<UnstructuredGrid>
<Piece NumberOfPoints="81" NumberOfCells="128">
<Points>
<DataArray type="Float64" NumberOfComponents="3" Format="ascii">  0.0000000000000000e+00  0.0000000000000000e+00  0.0000000000000000e+00   1.2500000000000000e-01  0.0000000000000000e+00  0.0000000000000000e+00   2.5000000000000000e-01  0.0000000000000000e+00  0.0000000000000000e+00   3.7500000000000000e-01  0.0000000000000000e+00  0.0000000000000000e+00   5.0000000000000000e-01  0.0000000000000000e+00  0.0000000000000000e+00   6.2500000000000000e-01  0.0000000000000000e+00  0.0000000000000000e+00   7.5000000000000000e-01  0.0000000000000000e+00  0.0000000000000000e+00   8.7500000000000000e-01  0.0000000000000000e+00  0.0000000000000000e+00   1.0000000000000000e+00  0.0000000000000000e+00  0.0000000000000000e+00   0.0000000000000000e+00  1.2500000000000000e-01  0.0000000000000000e+00   1.2500000000000000e-01  1.2500000000000000e-01  0.0000000000000000e+00   2.5000000000000000e-01  1.2500000000000000e-01  0.0000000000000000e+00   3.7500000000000000e-01  1.2500000000000000e-01  0.0000000000000000e+00   5.0000000000000000e-01  1.2500000000000000e-01  0.0000000000000000e+00   6.2500000000000000e-01  1.2500000000000000e-01  0.0000000000000000e+00   7.5000000000000000e-01  1.2500000000000000e-01  0.0000000000000000e+00   8.7500000000000000e-01  1.2500000000000000e-01  0.0000000000000000e+00   1.0000000000000000e+00  1.2500000000000000e-01  0.0000000000000000e+00   0.0000000000000000e+00  2.5000000000000000e-01  0.0000000000000000e+00   1.2500000000000000e-01  2.5000000000000000e-01  0.0000000000000000e+00   2.5000000000000000e-01  2.5000000000000000e-01  0.0000000000000000e+00   3.7500000000000000e-01  2.5000000000000000e-01  0.0000000000000000e+00   5.0000000000000000e-01  2.5000000000000000e-01  0.0000000000000000e+00   6.2500000000000000e-01  2.5000000000000000e-01  0.0000000000000000e+00   7.5000000000000000e-01  2.5000000000000000e-01  0.0000000000000000e+00   8.7500000000000000e-01  2.5000000000000000e-01  0.0000000000000000e+00   1.0000000000000000e+00  2.5000000000000000e-01  0.0000000000000000e+00   0.0000000000000000e+00  3.7500000000000000e-01  0.0000000000000000e+00   1.2500000000000000e-01  3.7500000000000000e-01  0.0000000000000000e+00   2.5000000000000000e-01  3.7500000000000000e-01  0.0000000000000000e+00   3.7500000000000000e-01  3.7500000000000000e-01  0.0000000000000000e+00   5.0000000000000000e-01  3.7500000000000000e-01  0.0000000000000000e+00   6.2500000000000000e-01  3.7500000000000000e-01  0.0000000000000000e+00   7.5000000000000000e-01  3.7500000000000000e-01  0.0000000000000000e+00   8.7500000000000000e-01  3.7500000000000000e-01  0.0000000000000000e+00   1.0000000000000000e+00  3.7500000000000000e-01  0.0000000000000000e+00   0.0000000000000000e+00  5.0000000000000000e-01  0.0000000000000000e+00   1.2500000000000000e-01  5.0000000000000000e-01  0.0000000000000000e+00   2.5000000000000000e-01  5.0000000000000000e-01  0.0000000000000000e+00   3.7500000000000000e-01  5.0000000000000000e-01  0.0000000000000000e+00   5.0000000000000000e-01  5.0000000000000000e-01  0.0000000000000000e+00   6.2500000000000000e-01  5.0000000000000000e-01  0.0000000000000000e+00   7.5000000000000000e-01  5.0000000000000000e-01  0.0000000000000000e+00   8.7500000000000000e-01  5.0000000000000000e-01  0.0000000000000000e+00   1.0000000000000000e+00  5.0000000000000000e-01  0.0000000000000000e+00   0.0000000000000000e+00  6.2500000000000000e-01  0.0000000000000000e+00   1.2500000000000000e-01  6.2500000000000000e-01  0.0000000000000000e+00   2.5000000000000000e-01  6.2500000000000000e-01  0.0000000000000000e+00   3.7500000000000000e-01  6.2500000000000000e-01  0.0000000000000000e+00   5.0000000000000000e-01  6.2500000000000000e-01  0.0000000000000000e+00   6.2500000000000000e-01  6.2500000000000000e-01  0.0000000000000000e+00   7.5000000000000000e-01  6.2500000000000000e-01  0.0000000000000000e+00   8.7500000000000000e-01  6.2500000000000000e-01  0.0000000000000000e+00   1.0000000000000000e+00  6.2500000000000000e-01  0.0000000000000000e+00   0.0000000000000000e+00  7.5000000000000000e-01  0.0000000000000000e+00   1.2500000000000000e-01  7.5000000000000000e-01  0.0000000000000000e+00   2.5000000000000000e-01  7.5000000000000000e-01  0.0000000000000000e+00   3.7500000000000000e-01  7.5000000000000000e-01  0.0000000000000000e+00   5.0000000000000000e-01  7.5000000000000000e-01  0.0000000000000000e+00   6.2500000000000000e-01  7.5000000000000000e-01  0.0000000000000000e+00   7.5000000000000000e-01  7.5000000000000000e-01  0.0000000000000000e+00   8.7500000000000000e-01  7.5000000000000000e-01  0.0000000000000000e+00   1.0000000000000000e+00  7.5000000000000000e-01  0.0000000000000000e+00   0.0000000000000000e+00  8.7500000000000000e-01  0.0000000000000000e+00   1.2500000000000000e-01  8.7500000000000000e-01  0.0000000000000000e+00   2.5000000000000000e-01  8.7500000000000000e-01  0.0000000000000000e+00   3.7500000000000000e-01  8.7500000000000000e-01  0.0000000000000000e+00   5.0000000000000000e-01  8.7500000000000000e-01  0.0000000000000000e+00   6.2500000000000000e-01  8.7500000000000000e-01  0.0000000000000000e+00   7.5000000000000000e-01  8.7500000000000000e-01  0.0000000000000000e+00   8.7500000000000000e-01  8.7500000000000000e-01  0.0000000000000000e+00   1.0000000000000000e+00  8.7500000000000000e-01  0.0000000000000000e+00   0.0000000000000000e+00  1.0000000000000000e+00  0.0000000000000000e+00   1.2500000000000000e-01  1.0000000000000000e+00  0.0000000000000000e+00   2.5000000000000000e-01  1.0000000000000000e+00  0.0000000000000000e+00   3.7500000000000000e-01  1.0000000000000000e+00  0.0000000000000000e+00   5.0000000000000000e-01  1.0000000000000000e+00  0.0000000000000000e+00   6.2500000000000000e-01  1.0000000000000000e+00  0.0000000000000000e+00   7.5000000000000000e-01  1.0000000000000000e+00  0.0000000000000000e+00   8.7500000000000000e-01  1.0000000000000000e+00  0.0000000000000000e+00   1.0000000000000000e+00  1.0000000000000000e+00  0.0000000000000000e+00 </DataArray>
</Points>
<PointData Scalars="scalars">
<DataArray type="Float64" Name="Solution Component 0 - ux" Format="ascii"> -1.6455994379103325e-04  -6.6217023147065630e-03  -7.2899080777854676e-03  -6.9995202944640794e-03  -6.1601301881906287e-03  -4.6327330239737934e-03  -2.8228642413281844e-03   2.7629994979712137e-03  -1.0297930828427943e-02   2.8486104274026503e-03   1.4588473724069030e-02   2.8303042709103762e-02   4.2500743097577870e-02   5.6795269462263667e-02   7.0709712047146100e-02   8.3618161301720090e-02   9.5793227588943541e-02   9.5193778879742327e-02   1.4168057287717323e-03   3.0008274990490472e-02   6.0453758158346742e-02   8.9645445872243462e-02   1.1759915030693566e-01   1.4377908016267998e-01   1.6754189647141615e-01   1.8904125693389942e-01   2.0011541106386752e-01  -1.2509843331839818e-03   4.4572839549121383e-02   9.0329410809757885e-02   1.3406267656025370e-01   1.7555481014533658e-01   2.1399167223941176e-01   2.4890986153801467e-01   2.8005776490270928e-01   3.0329654021283364e-01  -4.3354439258987462e-03   5.8700254624163478e-02   1.1844991154788329e-01   1.7598966429670274e-01   2.3042750715721327e-01   2.8077971161769932e-01   3.2664153841774540e-01   3.6702410068472746e-01   4.0243940742947432e-01  -7.3110668162936088e-03   7.2226895973195607e-02   1.4481776119216414e-01   2.1516023600008233e-01   2.8164976540387260e-01   3.4329036836297144e-01   3.9952513369118542e-01   4.4861336740798813e-01   4.9534841595814577e-01  -9.4290486425134146e-03   8.4949619940082988e-02   1.6914835063322020e-01   2.5093420842370728e-01   3.2831363338947206e-01   4.0039003077531077e-01   4.6624206901207427e-01   5.2368678528529866e-01   5.8012681329302918e-01  -1.0021400851461557e-02   9.6942253955255839e-02   1.9081372342054295e-01   2.8223586701563197e-01   3.6915041999291859e-01   4.5059375403645691e-01   5.2527139189282723e-01   5.9123841959101886e-01   6.5482151986177162e-01  -1.0468062365690575e-02   1.0865870581033986e-01   2.0799389371195556e-01   3.0782090835415726e-01   4.0300090655027360e-01   4.9250322852899481e-01   5.7473390595025931e-01   6.4856601540390180e-01   7.1626595491533085e-01 </DataArray>
<DataArray type="Float64" Name="Solution Component 1 - uy" Format="ascii">  1.0114012086616597e+00   1.0011511807574731e+00   9.7618834511384223e-01   9.3579018122910340e-01   8.8074998718134578e-01   8.1198279076866975e-01   7.3069463951991520e-01   6.3629089743417877e-01   5.4623636199847081e-01   1.0014800479727592e+00   9.8871563088205661e-01   9.6364379219037866e-01   9.2463642631609833e-01   8.7153528037898220e-01   8.0488163692005144e-01   7.2553594602392024e-01   6.3557372351462460e-01   5.3957338736069405e-01   9.7633226104058957e-01   9.6697924393576096e-01   9.4247761642273342e-01   9.0365736724032908e-01   8.5112469247830003e-01   7.8555744496889879e-01   7.0800125523840074e-01   6.2041833383522194e-01   5.2571865604567214e-01   9.3692659284894297e-01   9.2831981706531652e-01   9.0492493826020348e-01   8.6767702081599785e-01   8.1730848974296100e-01   7.5452747468027115e-01   6.8032281002466599e-01   5.9611918215154092e-01   5.0407469906398761e-01   8.8345323514359420e-01   8.7484431241447236e-01   8.5298330739309369e-01   8.1816791826541346e-01   7.7098473577794435e-01   7.1207296325010760e-01   6.4226882384298956e-01   5.6248916230661938e-01   4.7429219630014818e-01   8.1652833952217618e-01   8.0764533717624143e-01   7.8747793802604127e-01   7.5569603839582589e-01   7.1251844262737485e-01   6.5844932853450699e-01   5.9418035400696412e-01   5.2022680551614930e-01   4.3742384464560896e-01   7.3653541330200345e-01   7.2761389595287940e-01   7.0960770943249574e-01   6.8146534473089704e-01   6.4293306518504967e-01   5.9446164508670296e-01   5.3668930509552604e-01   4.7001089468415996e-01   3.9430844839941792e-01   6.4546909426757593e-01   6.3672275020643243e-01   6.2144430894234104e-01   5.9705076754412523e-01   5.6321143530227902e-01   5.2059589778917870e-01   4.6996528168224938e-01   4.1206568585601749e-01   3.4629232925512854e-01   5.4606623022526724e-01   5.3107571718799684e-01   5.2115017911804151e-01   5.0137518551048532e-01   4.7397513507591593e-01   4.3919077924206806e-01   3.9747833967075263e-01   3.4917827104493626e-01   2.9497069205496307e-01 </DataArray>
</PointData>
<CellData Scalars="scalars">
<DataArray type="Float64" Name="Solution Component 2 - u_eg " Format="ascii"> -3.5195476535274259e-02  -3.6187990835161751e-03   6.9299049738926312e-04  -4.6625395728131383e-03   1.0016088929456297e-03   8.0292091444896432e-03  -3.7101848775606084e-03   2.0432670614730520e-02  -1.0223687802310911e-02   3.0694372760599508e-02  -1.4517041502092798e-02   4.1578743310462692e-02  -3.0369977964361396e-02   2.0891385531283085e-02   9.2331818625478058e-03   6.4786656087819743e-03  -5.0005422603581560e-02   4.1293920206026624e-02  -3.0833907834165147e-02   4.1056768779333383e-02  -2.5527339107874115e-02   3.9313696267410936e-02  -2.0285789477920715e-02   3.5786080448435044e-02  -1.5431261163126138e-02   3.0995551998190287e-02  -1.1192379830480593e-02   2.3550849165598055e-02  -1.4667827913324665e-02   1.4812884254654352e-02   1.7948697229347589e-02  -3.1269448642553592e-02  -3.9697848828052565e-02   4.3713598244173715e-02  -2.0786916445264619e-02   3.4165896829597371e-02  -1.6454165103949744e-02   3.5659804339670545e-02  -1.3966891819591785e-02   3.1434343464544830e-02  -1.2144247524376853e-02   2.5388790985488401e-02  -1.2659088745232422e-02   1.8403443926772022e-02  -1.4913293363938106e-02   1.2784855086905154e-02   7.4069722923516353e-04  -2.7646997110486179e-02  -1.9707375793889547e-02   3.4906154169636938e-02  -1.9516651314079366e-02   3.0091220955044816e-02  -1.7864199930881959e-02   2.9145905630061034e-02  -1.6864001277110966e-02   2.3288068595049467e-02  -1.5263790236560340e-02   1.7639947586507405e-02  -1.6095703545660780e-02   1.1547755091452293e-02  -1.1861067628514443e-02   7.3388165175435616e-03  -1.0779984980357503e-02  -8.3647992540762262e-03   2.3238889576934684e-03   2.1100996297720186e-02  -1.9232164786692069e-02   2.7032325482095065e-02  -1.8291306092925990e-02   2.1525198783280273e-02  -1.7639948524787591e-02   1.5263789381783251e-02  -1.6387489014167336e-02   9.9634250000288950e-03  -1.6972771871937034e-02   4.3007555622381448e-03  -7.4686907591905325e-03   1.4160515527962964e-03  -2.1537155517616400e-02   1.1532913391271387e-02   2.4407516147633222e-02   6.7441358387627720e-03  -1.8342480001992373e-02   2.3575543397812634e-02  -1.8403446007729907e-02   1.2659088036622596e-02  -1.8645236357734803e-02   6.7147550814366424e-03  -1.7870902798002637e-02   1.7937539803886250e-03  -1.6690277975586542e-02  -2.5153614753570270e-03  -4.0338405759247110e-03  -4.1285462539483739e-03  -2.7947358191208412e-02   2.9784170735584373e-02   3.0803745574630698e-02  -1.4434057856697435e-02  -1.4812887224767020e-02   1.4667828032049643e-02  -1.7993223805513804e-02   2.5301312689718948e-03  -1.9102201890678360e-02   2.5999902879962866e-04  -1.7685482673330713e-02  -2.3367388115087015e-03  -1.4398228843649601e-02  -4.6047114967657484e-03  -3.6532719073776609e-03  -6.5695973155999454e-03  -2.4033500781531707e-02   3.9881113162525961e-02  -6.4786621518677003e-03  -9.2331803144823019e-03  -2.0425701447448364e-02   2.6855337402514414e-02  -3.8339247736541404e-02   7.0322038008633660e-03  -2.4653439580573169e-02  -9.7316997448566520e-05  -1.2258243498927530e-02  -9.6588083788581823e-03   1.8844729499504498e-03  -1.6767862810373058e-02   1.4786867739549720e-02  -1.7953404071804954e-02   8.9169012430615271e-03   2.9897376431124081e-02 </DataArray>
<DataArray type="Float64" Name="Solution Component 3 - p" Format="ascii"> -5.7716847190694307e+03  -5.7718252978773480e+03  -5.7713107176307531e+03  -5.7714160332477904e+03  -5.7710443234263557e+03  -5.7711027399394497e+03  -5.7708787308603078e+03  -5.7709163254367113e+03  -5.7708552430046693e+03  -5.7708796091469731e+03  -5.7709781907349407e+03  -5.7710024235360697e+03  -5.7712618761985259e+03  -5.7712393898744567e+03  -5.7716253015270277e+03  -5.7720610720387740e+03  -5.7717727422823164e+03  -5.7715844552382187e+03  -5.7713694927879933e+03  -5.7712689549169154e+03  -5.7711510149261212e+03  -5.7710584593549338e+03  -5.7710266490804861e+03  -5.7709619441766408e+03  -5.7710173339132680e+03  -5.7709962656306470e+03  -5.7711283807162890e+03  -5.7711643676522581e+03  -5.7713456708486556e+03  -5.7714135732614623e+03  -5.7716448021899578e+03  -5.7720262538251254e+03  -5.7717612130745829e+03  -5.7716673540797874e+03  -5.7715224217194564e+03  -5.7714508167742251e+03  -5.7713875382435654e+03  -5.7712962627091574e+03  -5.7713077621156399e+03  -5.7712236709640238e+03  -5.7713050872409158e+03  -5.7712441671820334e+03  -5.7713791099974842e+03  -5.7713541410536591e+03  -5.7715118195939567e+03  -5.7715202409050125e+03  -5.7717019881490696e+03  -5.7719680631761476e+03  -5.7717179733589328e+03  -5.7717585486598709e+03  -5.7717208992242031e+03  -5.7716625506227774e+03  -5.7716889940486790e+03  -5.7715958028688437e+03  -5.7716729289813975e+03  -5.7715678129652715e+03  -5.7716785384523646e+03  -5.7715797304030457e+03  -5.7717041359252862e+03  -5.7716251146385539e+03  -5.7717350267196434e+03  -5.7716976817386940e+03  -5.7717774267816521e+03  -5.7718942442354328e+03  -5.7716644401763933e+03  -5.7718485478997191e+03  -5.7719273591930250e+03  -5.7719004540736278e+03  -5.7720021526291612e+03  -5.7719355933534425e+03  -5.7720556103511026e+03  -5.7719568023013680e+03  -5.7720714365663334e+03  -5.7719585030017897e+03  -5.7720479549674601e+03  -5.7719333017681911e+03  -5.7719768985933415e+03  -5.7719004224629371e+03  -5.7718666832629842e+03  -5.7718144072113691e+03  -5.7716186700252465e+03  -5.7719243783424481e+03  -5.7721105907926903e+03  -5.7721212184083688e+03  -5.7722811997035988e+03  -5.7722562307568396e+03  -5.7723992470638750e+03  -5.7723258649948966e+03  -5.7724247148027853e+03  -5.7723191616334298e+03  -5.7723572916251896e+03  -5.7722295889454372e+03  -5.7721999427554147e+03  -5.7720968634087758e+03  -5.7719575728352584e+03  -5.7717451051865337e+03  -5.7715899152284655e+03  -5.7719838303866518e+03  -5.7722217675015117e+03  -5.7722896699101811e+03  -5.7724754821659826e+03  -5.7725092627954009e+03  -5.7726493750092322e+03  -5.7726178668747898e+03  -5.7726874156625427e+03  -5.7726045832271639e+03  -5.7725929369883415e+03  -5.7724689070114009e+03  -5.7723772662666424e+03  -5.7722549676112249e+03  -5.7720436074430863e+03  -5.7717031675224252e+03  -5.7715742687263519e+03  -5.7720100392447384e+03  -5.7724151226260374e+03  -5.7723801727452137e+03  -5.7726815248032071e+03  -5.7726661243246454e+03  -5.7728323879255258e+03  -5.7727894638477483e+03  -5.7728219755375048e+03  -5.7727667187030593e+03  -5.7726616233727118e+03  -5.7726014312298266e+03  -5.7723787384428806e+03  -5.7723319012149686e+03  -5.7720218112200064e+03  -5.7717388533571839e+03 </DataArray>
</CellData>
<Cells>
<DataArray type="Int64" Name="offsets" Format="ascii"> 3  6  9  12  15  18  21  24  27  30  33  36  39  42  45  48  51  54  57  60  63  66  69  72  75  78  81  84  87  90  93  96  99  102  105  108  111  114  117  120  123  126  129  132  135  138  141  144  147  150  153  156  159  162  165  168  171  174  177  180  183  186  189  192  195  198  201  204  207  210  213  216  219  222  225  228  231  234  237  240  243  246  249  252  255  258  261  264  267  270  273  276  279  282  285  288  291  294  297  300  303  306  309  312  315  318  321  324  327  330  333  336  339  342  345  348  351  354  357  360  363  366  369  372  375  378  381  384 </DataArray>
<DataArray type="Int64" Name="connectivity" Format="ascii">
 9  10  0  1  10  0  1  10  11  1  2  11  12  2  11  12  2  3  12  13  3  4  13  3  4  13  14  4  5  14  15  5  14  15  5  6  15  16  6  7  16  6  7  16  17  7  8  17  9  18  19  9  10  19  20  10  19  20  10  11  20  21  11  12  21  11  12  21  22  12  13  22  23  13  22  23  13  14  23  24  14  15  24  14  15  24  25  15  16  25  26  16  25  26  16  17  28  18  27  28  18  19  28  29  19  20  29  19  20  29  30  20  21  30  31  21  30  31  21  22  31  32  22  23  32  22  23  32  33  23  24  33  34  24  33  34  24  25  34  35  25  26  35  25  36  37  27  28  37  27  28  37  38  28  29  38  39  29  38  39  29  30  39  40  30  31  40  30  31  40  41  31  32  41  42  32  41  42  32  33  42  43  33  34  43  33  34  43  44  34  35  44  36  45  46  36  37  46  47  37  46  47  37  38  47  48  38  39  48  38  39  48  49  39  40  49  50  40  49  50  40  41  50  51  41  42  51  41  42  51  52  42  43  52  53  43  52  53  43  44  55  45  54  55  45  46  55  56  46  47  56  46  47  56  57  47  48  57  58  48  57  58  48  49  58  59  49  50  59  49  50  59  60  50  51  60  61  51  60  61  51  52  61  62  52  53  62  52  63  64  54  55  64  54  55  64  65  55  56  65  66  56  65  66  56  57  66  67  57  58  67  57  58  67  68  58  59  68  69  59  68  69  59  60  69  70  60  61  70  60  61  70  71  61  62  71  63  72  73  63  64  73  74  64  73  74  64  65  74  75  65  66  75  65  66  75  76  66  67  76  77  67  76  77  67  68  77  78  68  69  78  68  69  78  79  69  70  79  80  70  79  80  70  71 </DataArray>
<DataArray type="Int64" Name="types" Format="ascii"> 5  5  5  5  5  5  5  5  5  5  5  5  5  5  5  5  5  5  5  5  5  5  5  5  5  5  5  5  5  5  5  5  5  5  5  5  5  5  5  5  5  5  5  5  5  5  5  5  5  5  5  5  5  5  5  5  5  5  5  5  5  5  5  5  5  5  5  5  5  5  5  5  5  5  5  5  5  5  5  5  5  5  5  5  5  5  5  5  5  5  5  5  5  5  5  5  5  5  5  5  5  5  5  5  5  5  5  5  5  5  5  5  5  5  5  5  5  5  5  5  5  5  5  5  5  5  5  5 </DataArray>
</Cells>
</Piece>
</UnstructuredGrid>
</VTKFile>
