<VTKFile type="UnstructuredGrid" version="0.1" byte_order="LittleEndian">
<UnstructuredGrid>
<Piece NumberOfPoints="81" NumberOfCells="128">
<Points>
<DataArray type="Float64" NumberOfComponents="3" Format="ascii">  0.0000000000000000e+00  0.0000000000000000e+00  0.0000000000000000e+00   1.2500000000000000e-01  0.0000000000000000e+00  0.0000000000000000e+00   2.5000000000000000e-01  0.0000000000000000e+00  0.0000000000000000e+00   3.7500000000000000e-01  0.0000000000000000e+00  0.0000000000000000e+00   5.0000000000000000e-01  0.0000000000000000e+00  0.0000000000000000e+00   6.2500000000000000e-01  0.0000000000000000e+00  0.0000000000000000e+00   7.5000000000000000e-01  0.0000000000000000e+00  0.0000000000000000e+00   8.7500000000000000e-01  0.0000000000000000e+00  0.0000000000000000e+00   1.0000000000000000e+00  0.0000000000000000e+00  0.0000000000000000e+00   0.0000000000000000e+00  1.2500000000000000e-01  0.0000000000000000e+00   1.2500000000000000e-01  1.2500000000000000e-01  0.0000000000000000e+00   2.5000000000000000e-01  1.2500000000000000e-01  0.0000000000000000e+00   3.7500000000000000e-01  1.2500000000000000e-01  0.0000000000000000e+00   5.0000000000000000e-01  1.2500000000000000e-01  0.0000000000000000e+00   6.2500000000000000e-01  1.2500000000000000e-01  0.0000000000000000e+00   7.5000000000000000e-01  1.2500000000000000e-01  0.0000000000000000e+00   8.7500000000000000e-01  1.2500000000000000e-01  0.0000000000000000e+00   1.0000000000000000e+00  1.2500000000000000e-01  0.0000000000000000e+00   0.0000000000000000e+00  2.5000000000000000e-01  0.0000000000000000e+00   1.2500000000000000e-01  2.5000000000000000e-01  0.0000000000000000e+00   2.5000000000000000e-01  2.5000000000000000e-01  0.0000000000000000e+00   3.7500000000000000e-01  2.5000000000000000e-01  0.0000000000000000e+00   5.0000000000000000e-01  2.5000000000000000e-01  0.0000000000000000e+00   6.2500000000000000e-01  2.5000000000000000e-01  0.0000000000000000e+00   7.5000000000000000e-01  2.5000000000000000e-01  0.0000000000000000e+00   8.7500000000000000e-01  2.5000000000000000e-01  0.0000000000000000e+00   1.0000000000000000e+00  2.5000000000000000e-01  0.0000000000000000e+00   0.0000000000000000e+00  3.7500000000000000e-01  0.0000000000000000e+00   1.2500000000000000e-01  3.7500000000000000e-01  0.0000000000000000e+00   2.5000000000000000e-01  3.7500000000000000e-01  0.0000000000000000e+00   3.7500000000000000e-01  3.7500000000000000e-01  0.0000000000000000e+00   5.0000000000000000e-01  3.7500000000000000e-01  0.0000000000000000e+00   6.2500000000000000e-01  3.7500000000000000e-01  0.0000000000000000e+00   7.5000000000000000e-01  3.7500000000000000e-01  0.0000000000000000e+00   8.7500000000000000e-01  3.7500000000000000e-01  0.0000000000000000e+00   1.0000000000000000e+00  3.7500000000000000e-01  0.0000000000000000e+00   0.0000000000000000e+00  5.0000000000000000e-01  0.0000000000000000e+00   1.2500000000000000e-01  5.0000000000000000e-01  0.0000000000000000e+00   2.5000000000000000e-01  5.0000000000000000e-01  0.0000000000000000e+00   3.7500000000000000e-01  5.0000000000000000e-01  0.0000000000000000e+00   5.0000000000000000e-01  5.0000000000000000e-01  0.0000000000000000e+00   6.2500000000000000e-01  5.0000000000000000e-01  0.0000000000000000e+00   7.5000000000000000e-01  5.0000000000000000e-01  0.0000000000000000e+00   8.7500000000000000e-01  5.0000000000000000e-01  0.0000000000000000e+00   1.0000000000000000e+00  5.0000000000000000e-01  0.0000000000000000e+00   0.0000000000000000e+00  6.2500000000000000e-01  0.0000000000000000e+00   1.2500000000000000e-01  6.2500000000000000e-01  0.0000000000000000e+00   2.5000000000000000e-01  6.2500000000000000e-01  0.0000000000000000e+00   3.7500000000000000e-01  6.2500000000000000e-01  0.0000000000000000e+00   5.0000000000000000e-01  6.2500000000000000e-01  0.0000000000000000e+00   6.2500000000000000e-01  6.2500000000000000e-01  0.0000000000000000e+00   7.5000000000000000e-01  6.2500000000000000e-01  0.0000000000000000e+00   8.7500000000000000e-01  6.2500000000000000e-01  0.0000000000000000e+00   1.0000000000000000e+00  6.2500000000000000e-01  0.0000000000000000e+00   0.0000000000000000e+00  7.5000000000000000e-01  0.0000000000000000e+00   1.2500000000000000e-01  7.5000000000000000e-01  0.0000000000000000e+00   2.5000000000000000e-01  7.5000000000000000e-01  0.0000000000000000e+00   3.7500000000000000e-01  7.5000000000000000e-01  0.0000000000000000e+00   5.0000000000000000e-01  7.5000000000000000e-01  0.0000000000000000e+00   6.2500000000000000e-01  7.5000000000000000e-01  0.0000000000000000e+00   7.5000000000000000e-01  7.5000000000000000e-01  0.0000000000000000e+00   8.7500000000000000e-01  7.5000000000000000e-01  0.0000000000000000e+00   1.0000000000000000e+00  7.5000000000000000e-01  0.0000000000000000e+00   0.0000000000000000e+00  8.7500000000000000e-01  0.0000000000000000e+00   1.2500000000000000e-01  8.7500000000000000e-01  0.0000000000000000e+00   2.5000000000000000e-01  8.7500000000000000e-01  0.0000000000000000e+00   3.7500000000000000e-01  8.7500000000000000e-01  0.0000000000000000e+00   5.0000000000000000e-01  8.7500000000000000e-01  0.0000000000000000e+00   6.2500000000000000e-01  8.7500000000000000e-01  0.0000000000000000e+00   7.5000000000000000e-01  8.7500000000000000e-01  0.0000000000000000e+00   8.7500000000000000e-01  8.7500000000000000e-01  0.0000000000000000e+00   1.0000000000000000e+00  8.7500000000000000e-01  0.0000000000000000e+00   0.0000000000000000e+00  1.0000000000000000e+00  0.0000000000000000e+00   1.2500000000000000e-01  1.0000000000000000e+00  0.0000000000000000e+00   2.5000000000000000e-01  1.0000000000000000e+00  0.0000000000000000e+00   3.7500000000000000e-01  1.0000000000000000e+00  0.0000000000000000e+00   5.0000000000000000e-01  1.0000000000000000e+00  0.0000000000000000e+00   6.2500000000000000e-01  1.0000000000000000e+00  0.0000000000000000e+00   7.5000000000000000e-01  1.0000000000000000e+00  0.0000000000000000e+00   8.7500000000000000e-01  1.0000000000000000e+00  0.0000000000000000e+00   1.0000000000000000e+00  1.0000000000000000e+00  0.0000000000000000e+00 </DataArray>
</Points>
<PointData Scalars="scalars">
<DataArray type="Float64" Name="Solution Component 0 - ux" Format="ascii"> -1.6455994381460150e-04  -6.6217023147064199e-03  -7.2899080778151427e-03  -6.9995202944589689e-03  -6.1601301881625183e-03  -4.6327330240410825e-03  -2.8228642413740315e-03   2.7629994979835029e-03  -1.0297930828472673e-02   2.8486104273947126e-03   1.4588473724073759e-02   2.8303042709084410e-02   4.2500743097567573e-02   5.6795269462237660e-02   7.0709712047103579e-02   8.3618161301703339e-02   9.5793227588926791e-02   9.5193778879740343e-02   1.4168057287669512e-03   3.0008274990487124e-02   6.0453758158336646e-02   8.9645445872232249e-02   1.1759915030692603e-01   1.4377908016266372e-01   1.6754189647141582e-01   1.8904125693390500e-01   2.0011541106385899e-01  -1.2509843331781230e-03   4.4572839549121265e-02   9.0329410809745089e-02   1.3406267656024429e-01   1.7555481014533386e-01   2.1399167223940516e-01   2.4890986153801456e-01   2.8005776490272344e-01   3.0329654021281149e-01  -4.3354439259263543e-03   5.8700254624168585e-02   1.1844991154788934e-01   1.7598966429672247e-01   2.3042750715722687e-01   2.8077971161770343e-01   3.2664153841775218e-01   3.6702410068474373e-01   4.0243940742946432e-01  -7.3110668162524846e-03   7.2226895973228900e-02   1.4481776119219897e-01   2.1516023600011480e-01   2.8164976540391584e-01   3.4329036836299864e-01   3.9952513369121162e-01   4.4861336740801977e-01   4.9534841595812995e-01  -9.4290486425985271e-03   8.4949619940102486e-02   1.6914835063323747e-01   2.5093420842373210e-01   3.2831363338950109e-01   4.0039003077533181e-01   4.6624206901209486e-01   5.2368678528533141e-01   5.8012681329307458e-01  -1.0021400851455444e-02   9.6942253955248261e-02   1.9081372342050545e-01   2.8223586701560882e-01   3.6915041999289944e-01   4.5059375403644231e-01   5.2527139189281025e-01   5.9123841959099388e-01   6.5482151986167525e-01  -1.0468062365632047e-02   1.0865870581031165e-01   2.0799389371194263e-01   3.0782090835413678e-01   4.0300090655025494e-01   4.9250322852896961e-01   5.7473390595026741e-01   6.4856601540391412e-01   7.1626595491531331e-01 </DataArray>
<DataArray type="Float64" Name="Solution Component 1 - uy" Format="ascii">  1.0114012086616453e+00   1.0011511807574449e+00   9.7618834511381247e-01   9.3579018122909696e-01   8.8074998718132047e-01   8.1198279076871815e-01   7.3069463951982283e-01   6.3629089743417433e-01   5.4623636199852155e-01   1.0014800479727626e+00   9.8871563088206349e-01   9.6364379219040164e-01   9.2463642631611509e-01   8.7153528037900418e-01   8.0488163692006987e-01   7.2553594602391780e-01   6.3557372351462960e-01   5.3957338736066363e-01   9.7633226104060022e-01   9.6697924393576618e-01   9.4247761642275540e-01   9.0365736724032997e-01   8.5112469247830980e-01   7.8555744496891111e-01   7.0800125523839108e-01   6.2041833383518430e-01   5.2571865604563550e-01   9.3692659284892643e-01   9.2831981706533473e-01   9.0492493826022269e-01   8.6767702081599674e-01   8.1730848974296366e-01   7.5452747468026804e-01   6.8032281002465733e-01   5.9611918215150983e-01   5.0407469906395841e-01   8.8345323514365526e-01   8.7484431241450500e-01   8.5298330739311212e-01   8.1816791826542490e-01   7.7098473577794491e-01   7.1207296325012559e-01   6.4226882384298989e-01   5.6248916230658497e-01   4.7429219630013614e-01   8.1652833952214510e-01   8.0764533717622178e-01   7.8747793802602539e-01   7.5569603839581723e-01   7.1251844262736952e-01   6.5844932853451710e-01   5.9418035400694180e-01   5.2022680551612144e-01   4.3742384464560818e-01   7.3653541330195593e-01   7.2761389595289394e-01   7.0960770943249962e-01   6.8146534473090059e-01   6.4293306518504956e-01   5.9446164508672006e-01   5.3668930509552737e-01   4.7001089468412033e-01   3.9430844839947232e-01   6.4546909426761490e-01   6.3672275020643154e-01   6.2144430894233005e-01   5.9705076754413966e-01   5.6321143530229190e-01   5.2059589778920123e-01   4.6996528168228252e-01   4.1206568585599723e-01   3.4629232925517811e-01   5.4606623022521250e-01   5.3107571718796465e-01   5.2115017911799910e-01   5.0137518551046900e-01   4.7397513507589062e-01   4.3919077924203781e-01   3.9747833967080243e-01   3.4917827104484644e-01   2.9497069205495285e-01 </DataArray>
</PointData>
<CellData Scalars="scalars">
<DataArray type="Float64" Name="Solution Component 2 - u_eg " Format="ascii"> -3.5195476535563271e-02  -3.6187990839666698e-03   6.9299049716134756e-04  -4.6625395729775450e-03   1.0016088920007185e-03   8.0292091434633513e-03  -3.7101848781426394e-03   2.0432670613932453e-02  -1.0223687802402017e-02   3.0694372761647746e-02  -1.4517041502361962e-02   4.1578743308881214e-02  -3.0369977965640546e-02   2.0891385531130010e-02   9.2331818628177721e-03   6.4786656101307625e-03  -5.0005422603619003e-02   4.1293920205877903e-02  -3.0833907834022352e-02   4.1056768779527748e-02  -2.5527339107809254e-02   3.9313696267249926e-02  -2.0285789477687350e-02   3.5786080448691381e-02  -1.5431261162678860e-02   3.0995551998405580e-02  -1.1192379830731356e-02   2.3550849165223101e-02  -1.4667827913483132e-02   1.4812884254710761e-02   1.7948697229931851e-02  -3.1269448642355674e-02  -3.9697848827843531e-02   4.3713598244151150e-02  -2.0786916445152473e-02   3.4165896829780898e-02  -1.6454165103878045e-02   3.5659804339782226e-02  -1.3966891819468724e-02   3.1434343464806273e-02  -1.2144247524081541e-02   2.5388790985905709e-02  -1.2659088745253046e-02   1.8403443926417747e-02  -1.4913293364318122e-02   1.2784855086714023e-02   7.4069722949679734e-04  -2.7646997110350697e-02  -1.9707375794935960e-02   3.4906154169310130e-02  -1.9516651314017343e-02   3.0091220955227704e-02  -1.7864199930831694e-02   2.9145905629999868e-02  -1.6864001277035540e-02   2.3288068595156058e-02  -1.5263790236330137e-02   1.7639947586447473e-02  -1.6095703545952422e-02   1.1547755091109639e-02  -1.1861067628857415e-02   7.3388165173190771e-03  -1.0779984980046453e-02  -8.3647992539450603e-03   2.3238889586756138e-03   2.1100996298079110e-02  -1.9232164786023537e-02   2.7032325482796996e-02  -1.8291306092348310e-02   2.1525198783616938e-02  -1.7639948524559329e-02   1.5263789382118453e-02  -1.6387489013753091e-02   9.9634250003913828e-03  -1.6972771871909771e-02   4.3007555623389895e-03  -7.4686907591060324e-03   1.4160515527761632e-03  -2.1537155517035250e-02   1.1532913391586071e-02   2.4407516146355904e-02   6.7441358382907520e-03  -1.8342480002476652e-02   2.3575543397535793e-02  -1.8403446008233373e-02   1.2659088036440478e-02  -1.8645236358118010e-02   6.7147550812273514e-03  -1.7870902798096184e-02   1.7937539804069593e-03  -1.6690277976070648e-02  -2.5153614759517756e-03  -4.0338405767092059e-03  -4.1285462541917634e-03  -2.7947358191389597e-02   2.9784170736048460e-02   3.0803745574695306e-02  -1.4434057857716788e-02  -1.4812887224477210e-02   1.4667828032117462e-02  -1.7993223805526204e-02   2.5301312685750703e-03  -1.9102201890910081e-02   2.5999902843834707e-04  -1.7685482673386630e-02  -2.3367388116662109e-03  -1.4398228844036581e-02  -4.6047114974820946e-03  -3.6532719079027235e-03  -6.5695973162538486e-03  -2.4033500781424837e-02   3.9881113161783187e-02  -6.4786621501716846e-03  -9.2331803134818244e-03  -2.0425701447285220e-02   2.6855337403244171e-02  -3.8339247736276602e-02   7.0322038011438144e-03  -2.4653439580380722e-02  -9.7316997032011871e-05  -1.2258243498461621e-02  -9.6588083780853335e-03   1.8844729506981689e-03  -1.6767862810583688e-02   1.4786867738896472e-02  -1.7953404071440231e-02   8.9169012434728995e-03   2.9897376431594049e-02 </DataArray>
<DataArray type="Float64" Name="Solution Component 3 - p" Format="ascii">  1.3295131317836786e-01  -7.6274947388362815e-03   5.0695275185585587e-01   4.0163713481800872e-01   7.7334695625252858e-01   7.1493044315851095e-01   9.3893952229922217e-01   9.0134494589707037e-01   9.6242737793990674e-01   9.3806123563637489e-01   8.3947964766693650e-01   8.1524684653890767e-01   5.5579418408188341e-01   5.7828050815114096e-01   1.9236885558239120e-01  -2.4340165616369569e-01   4.4928100292411143e-02   2.3321514438979912e-01   4.4817759461547713e-01   5.4871546569326146e-01   6.6665545648792124e-01   7.5921102767419424e-01   7.9102130212334976e-01   8.5572620596901661e-01   8.0033646934224156e-01   8.2140475196201057e-01   6.8928966631844468e-01   6.5330273035132691e-01   4.7199953395420363e-01   4.0409712114459873e-01   1.7286819265194281e-01  -2.0858344251554603e-01   5.6457308025689310e-02   1.5031630282137420e-01   2.9524866315212489e-01   3.6685360838360948e-01   4.3013213904321235e-01   5.2140767345143146e-01   5.0990826696881786e-01   5.9399941858604599e-01   5.1258314169426744e-01   5.7350320057574367e-01   4.3856038512286449e-01   4.6352932895047722e-01   3.0585078865250326e-01   2.9742947759428262e-01   1.1568223353911931e-01  -1.5039279353869620e-01   9.9697023675269572e-02   5.9121722737632436e-02   9.6771158405809216e-02   1.5511975983167034e-01   1.2867633393048220e-01   2.2186751376582511e-01   1.4474140121172238e-01   2.4985741733830771e-01   1.3913193024545661e-01   2.3793997956297924e-01   1.1353445732150555e-01   1.9255574405649967e-01   8.2643662966299533e-02   1.1998864391290774e-01   4.0243600957403355e-02  -7.6573852823700411e-02   1.5323020621568786e-01  -3.0877517109217632e-02  -1.0968881041523483e-01  -8.2783691016863295e-02  -1.8448224655169604e-01  -1.1792297083259183e-01  -2.3793996849348975e-01  -1.3913191875788358e-01  -2.5376618372399828e-01  -1.4083261917958201e-01  -2.3028458485330588e-01  -1.1563138558054459e-01  -1.5922821073141899e-01  -8.2752080329425395e-02  -4.9012880375532905e-02   3.2631712410100995e-03   1.9900035736247340e-01  -1.0670795984064772e-01  -2.9292041008065212e-01  -3.0354802576165102e-01  -4.6352932098902760e-01  -4.3856037423256272e-01  -5.8157668126566109e-01  -5.0819461228949703e-01  -6.0704442017471616e-01  -5.0149125082253954e-01  -5.3962124258155730e-01  -4.1191856282955563e-01  -3.8227237280356757e-01  -2.7919302617166930e-01  -1.3990245264931850e-01   7.2565196074351940e-02   2.2775515414267808e-01  -1.6616000404307676e-01  -4.0409711890488742e-01  -4.7199952757138736e-01  -6.5781178337504209e-01  -6.9159241279156614e-01  -8.3170462662534739e-01  -8.0019649218001010e-01  -8.6974527993486739e-01  -7.8691284455480326e-01  -7.7526660573793149e-01  -6.5123662878985977e-01  -5.5959588403471638e-01  -4.3729722861723136e-01  -2.2593706047941106e-01   1.1450286018410070e-01   2.4340165625860466e-01  -1.9236886212758181e-01  -5.9745224342810888e-01  -5.6250236260448039e-01  -8.6385442059875095e-01  -8.4845394203610380e-01  -1.0147175429163144e+00  -9.7179346513883957e-01  -1.0043051548957043e+00  -9.4904832044961429e-01  -8.4395299010392633e-01  -7.8376084721694017e-01  -5.6106806027172429e-01  -5.1423083236170719e-01  -2.0414083739799410e-01   7.8817025424277945e-02 </DataArray>
</CellData>
<Cells>
<DataArray type="Int64" Name="offsets" Format="ascii"> 3  6  9  12  15  18  21  24  27  30  33  36  39  42  45  48  51  54  57  60  63  66  69  72  75  78  81  84  87  90  93  96  99  102  105  108  111  114  117  120  123  126  129  132  135  138  141  144  147  150  153  156  159  162  165  168  171  174  177  180  183  186  189  192  195  198  201  204  207  210  213  216  219  222  225  228  231  234  237  240  243  246  249  252  255  258  261  264  267  270  273  276  279  282  285  288  291  294  297  300  303  306  309  312  315  318  321  324  327  330  333  336  339  342  345  348  351  354  357  360  363  366  369  372  375  378  381  384 </DataArray>
<DataArray type="Int64" Name="connectivity" Format="ascii">
 9  10  0  1  10  0  1  10  11  1  2  11  12  2  11  12  2  3  12  13  3  4  13  3  4  13  14  4  5  14  15  5  14  15  5  6  15  16  6  7  16  6  7  16  17  7  8  17  9  18  19  9  10  19  20  10  19  20  10  11  20  21  11  12  21  11  12  21  22  12  13  22  23  13  22  23  13  14  23  24  14  15  24  14  15  24  25  15  16  25  26  16  25  26  16  17  28  18  27  28  18  19  28  29  19  20  29  19  20  29  30  20  21  30  31  21  30  31  21  22  31  32  22  23  32  22  23  32  33  23  24  33  34  24  33  34  24  25  34  35  25  26  35  25  36  37  27  28  37  27  28  37  38  28  29  38  39  29  38  39  29  30  39  40  30  31  40  30  31  40  41  31  32  41  42  32  41  42  32  33  42  43  33  34  43  33  34  43  44  34  35  44  36  45  46  36  37  46  47  37  46  47  37  38  47  48  38  39  48  38  39  48  49  39  40  49  50  40  49  50  40  41  50  51  41  42  51  41  42  51  52  42  43  52  53  43  52  53  43  44  55  45  54  55  45  46  55  56  46  47  56  46  47  56  57  47  48  57  58  48  57  58  48  49  58  59  49  50  59  49  50  59  60  50  51  60  61  51  60  61  51  52  61  62  52  53  62  52  63  64  54  55  64  54  55  64  65  55  56  65  66  56  65  66  56  57  66  67  57  58  67  57  58  67  68  58  59  68  69  59  68  69  59  60  69  70  60  61  70  60  61  70  71  61  62  71  63  72  73  63  64  73  74  64  73  74  64  65  74  75  65  66  75  65  66  75  76  66  67  76  77  67  76  77  67  68  77  78  68  69  78  68  69  78  79  69  70  79  80  70  79  80  70  71 </DataArray>
<DataArray type="Int64" Name="types" Format="ascii"> 5  5  5  5  5  5  5  5  5  5  5  5  5  5  5  5  5  5  5  5  5  5  5  5  5  5  5  5  5  5  5  5  5  5  5  5  5  5  5  5  5  5  5  5  5  5  5  5  5  5  5  5  5  5  5  5  5  5  5  5  5  5  5  5  5  5  5  5  5  5  5  5  5  5  5  5  5  5  5  5  5  5  5  5  5  5  5  5  5  5  5  5  5  5  5  5  5  5  5  5  5  5  5  5  5  5  5  5  5  5  5  5  5  5  5  5  5  5  5  5  5  5  5  5  5  5  5  5 </DataArray>
</Cells>
</Piece>
</UnstructuredGrid>
</VTKFile>
