<VTKFile type="UnstructuredGrid" version="0.1" byte_order="LittleEndian">
<UnstructuredGrid>
<Piece NumberOfPoints="4913" NumberOfCells="24576">
<Points>
<DataArray type="Float64" NumberOfComponents="3" Format="ascii">  0.0000000000000000e+00  0.0000000000000000e+00  0.0000000000000000e+00   6.2500000000000000e-02  0.0000000000000000e+00  0.0000000000000000e+00   1.2500000000000000e-01  0.0000000000000000e+00  0.0000000000000000e+00   1.8750000000000000e-01  0.0000000000000000e+00  0.0000000000000000e+00   2.5000000000000000e-01  0.0000000000000000e+00  0.0000000000000000e+00   3.1250000000000000e-01  0.0000000000000000e+00  0.0000000000000000e+00   3.7500000000000000e-01  0.0000000000000000e+00  0.0000000000000000e+00   4.3750000000000000e-01  0.0000000000000000e+00  0.0000000000000000e+00   5.0000000000000000e-01  0.0000000000000000e+00  0.0000000000000000e+00   5.6250000000000000e-01  0.0000000000000000e+00  0.0000000000000000e+00   6.2500000000000000e-01  0.0000000000000000e+00  0.0000000000000000e+00   6.8750000000000000e-01  0.0000000000000000e+00  0.0000000000000000e+00   7.5000000000000000e-01  0.0000000000000000e+00  0.0000000000000000e+00   8.1250000000000000e-01  0.0000000000000000e+00  0.0000000000000000e+00   8.7500000000000000e-01  0.0000000000000000e+00  0.0000000000000000e+00   9.3750000000000000e-01  0.0000000000000000e+00  0.0000000000000000e+00   1.0000000000000000e+00  0.0000000000000000e+00  0.0000000000000000e+00   0.0000000000000000e+00  6.2500000000000000e-02  0.0000000000000000e+00   6.2500000000000000e-02  6.2500000000000000e-02  0.0000000000000000e+00   1.2500000000000000e-01  6.2500000000000000e-02  0.0000000000000000e+00   1.8750000000000000e-01  6.2500000000000000e-02  0.0000000000000000e+00   2.5000000000000000e-01  6.2500000000000000e-02  0.0000000000000000e+00   3.1250000000000000e-01  6.2500000000000000e-02  0.0000000000000000e+00   3.7500000000000000e-01  6.2500000000000000e-02  0.0000000000000000e+00   4.3750000000000000e-01  6.2500000000000000e-02  0.0000000000000000e+00   5.0000000000000000e-01  6.2500000000000000e-02  0.0000000000000000e+00   5.6250000000000000e-01  6.2500000000000000e-02  0.0000000000000000e+00   6.2500000000000000e-01  6.2500000000000000e-02  0.0000000000000000e+00   6.8750000000000000e-01  6.2500000000000000e-02  0.0000000000000000e+00   7.5000000000000000e-01  6.2500000000000000e-02  0.0000000000000000e+00   8.1250000000000000e-01  6.2500000000000000e-02  0.0000000000000000e+00   8.7500000000000000e-01  6.2500000000000000e-02  0.0000000000000000e+00   9.3750000000000000e-01  6.2500000000000000e-02  0.0000000000000000e+00   1.0000000000000000e+00  6.2500000000000000e-02  0.0000000000000000e+00   0.0000000000000000e+00  1.2500000000000000e-01  0.0000000000000000e+00   6.2500000000000000e-02  1.2500000000000000e-01  0.0000000000000000e+00   1.2500000000000000e-01  1.2500000000000000e-01  0.0000000000000000e+00   1.8750000000000000e-01  1.2500000000000000e-01  0.0000000000000000e+00   2.5000000000000000e-01  1.2500000000000000e-01  0.0000000000000000e+00   3.1250000000000000e-01  1.2500000000000000e-01  0.0000000000000000e+00   3.7500000000000000e-01  1.2500000000000000e-01  0.0000000000000000e+00   4.3750000000000000e-01  1.2500000000000000e-01  0.0000000000000000e+00   5.0000000000000000e-01  1.2500000000000000e-01  0.0000000000000000e+00   5.6250000000000000e-01  1.2500000000000000e-01  0.0000000000000000e+00   6.2500000000000000e-01  1.2500000000000000e-01  0.0000000000000000e+00   6.8750000000000000e-01  1.2500000000000000e-01  0.0000000000000000e+00   7.5000000000000000e-01  1.2500000000000000e-01  0.0000000000000000e+00   8.1250000000000000e-01  1.2500000000000000e-01  0.0000000000000000e+00   8.7500000000000000e-01  1.2500000000000000e-01  0.0000000000000000e+00   9.3750000000000000e-01  1.2500000000000000e-01  0.0000000000000000e+00   1.0000000000000000e+00  1.2500000000000000e-01  0.0000000000000000e+00   0.0000000000000000e+00  1.8750000000000000e-01  0.0000000000000000e+00   6.2500000000000000e-02  1.8750000000000000e-01  0.0000000000000000e+00   1.2500000000000000e-01  1.8750000000000000e-01  0.0000000000000000e+00   1.8750000000000000e-01  1.8750000000000000e-01  0.0000000000000000e+00   2.5000000000000000e-01  1.8750000000000000e-01  0.0000000000000000e+00   3.1250000000000000e-01  1.8750000000000000e-01  0.0000000000000000e+00   3.7500000000000000e-01  1.8750000000000000e-01  0.0000000000000000e+00   4.3750000000000000e-01  1.8750000000000000e-01  0.0000000000000000e+00   5.0000000000000000e-01  1.8750000000000000e-01  0.0000000000000000e+00   5.6250000000000000e-01  1.8750000000000000e-01  0.0000000000000000e+00   6.2500000000000000e-01  1.8750000000000000e-01  0.0000000000000000e+00   6.8750000000000000e-01  1.8750000000000000e-01  0.0000000000000000e+00   7.5000000000000000e-01  1.8750000000000000e-01  0.0000000000000000e+00   8.1250000000000000e-01  1.8750000000000000e-01  0.0000000000000000e+00   8.7500000000000000e-01  1.8750000000000000e-01  0.0000000000000000e+00   9.3750000000000000e-01  1.8750000000000000e-01  0.0000000000000000e+00   1.0000000000000000e+00  1.8750000000000000e-01  0.0000000000000000e+00   0.0000000000000000e+00  2.5000000000000000e-01  0.0000000000000000e+00   6.2500000000000000e-02  2.5000000000000000e-01  0.0000000000000000e+00   1.2500000000000000e-01  2.5000000000000000e-01  0.0000000000000000e+00   1.8750000000000000e-01  2.5000000000000000e-01  0.0000000000000000e+00   2.5000000000000000e-01  2.5000000000000000e-01  0.0000000000000000e+00   3.1250000000000000e-01  2.5000000000000000e-01  0.0000000000000000e+00   3.7500000000000000e-01  2.5000000000000000e-01  0.0000000000000000e+00   4.3750000000000000e-01  2.5000000000000000e-01  0.0000000000000000e+00   5.0000000000000000e-01  2.5000000000000000e-01  0.0000000000000000e+00   5.6250000000000000e-01  2.5000000000000000e-01  0.0000000000000000e+00   6.2500000000000000e-01  2.5000000000000000e-01  0.0000000000000000e+00   6.8750000000000000e-01  2.5000000000000000e-01  0.0000000000000000e+00   7.5000000000000000e-01  2.5000000000000000e-01  0.0000000000000000e+00   8.1250000000000000e-01  2.5000000000000000e-01  0.0000000000000000e+00   8.7500000000000000e-01  2.5000000000000000e-01  0.0000000000000000e+00   9.3750000000000000e-01  2.5000000000000000e-01  0.0000000000000000e+00   1.0000000000000000e+00  2.5000000000000000e-01  0.0000000000000000e+00   0.0000000000000000e+00  3.1250000000000000e-01  0.0000000000000000e+00   6.2500000000000000e-02  3.1250000000000000e-01  0.0000000000000000e+00   1.2500000000000000e-01  3.1250000000000000e-01  0.0000000000000000e+00   1.8750000000000000e-01  3.1250000000000000e-01  0.0000000000000000e+00   2.5000000000000000e-01  3.1250000000000000e-01  0.0000000000000000e+00   3.1250000000000000e-01  3.1250000000000000e-01  0.0000000000000000e+00   3.7500000000000000e-01  3.1250000000000000e-01  0.0000000000000000e+00   4.3750000000000000e-01  3.1250000000000000e-01  0.0000000000000000e+00   5.0000000000000000e-01  3.1250000000000000e-01  0.0000000000000000e+00   5.6250000000000000e-01  3.1250000000000000e-01  0.0000000000000000e+00   6.2500000000000000e-01  3.1250000000000000e-01  0.0000000000000000e+00   6.8750000000000000e-01  3.1250000000000000e-01  0.0000000000000000e+00   7.5000000000000000e-01  3.1250000000000000e-01  0.0000000000000000e+00   8.1250000000000000e-01  3.1250000000000000e-01  0.0000000000000000e+00   8.7500000000000000e-01  3.1250000000000000e-01  0.0000000000000000e+00   9.3750000000000000e-01  3.1250000000000000e-01  0.0000000000000000e+00   1.0000000000000000e+00  3.1250000000000000e-01  0.0000000000000000e+00   0.0000000000000000e+00  3.7500000000000000e-01  0.0000000000000000e+00   6.2500000000000000e-02  3.7500000000000000e-01  0.0000000000000000e+00   1.2500000000000000e-01  3.7500000000000000e-01  0.0000000000000000e+00   1.8750000000000000e-01  3.7500000000000000e-01  0.0000000000000000e+00   2.5000000000000000e-01  3.7500000000000000e-01  0.0000000000000000e+00   3.1250000000000000e-01  3.7500000000000000e-01  0.0000000000000000e+00   3.7500000000000000e-01  3.7500000000000000e-01  0.0000000000000000e+00   4.3750000000000000e-01  3.7500000000000000e-01  0.0000000000000000e+00   5.0000000000000000e-01  3.7500000000000000e-01  0.0000000000000000e+00   5.6250000000000000e-01  3.7500000000000000e-01  0.0000000000000000e+00   6.2500000000000000e-01  3.7500000000000000e-01  0.0000000000000000e+00   6.8750000000000000e-01  3.7500000000000000e-01  0.0000000000000000e+00   7.5000000000000000e-01  3.7500000000000000e-01  0.0000000000000000e+00   8.1250000000000000e-01  3.7500000000000000e-01  0.0000000000000000e+00   8.7500000000000000e-01  3.7500000000000000e-01  0.0000000000000000e+00   9.3750000000000000e-01  3.7500000000000000e-01  0.0000000000000000e+00   1.0000000000000000e+00  3.7500000000000000e-01  0.0000000000000000e+00   0.0000000000000000e+00  4.3750000000000000e-01  0.0000000000000000e+00   6.2500000000000000e-02  4.3750000000000000e-01  0.0000000000000000e+00   1.2500000000000000e-01  4.3750000000000000e-01  0.0000000000000000e+00   1.8750000000000000e-01  4.3750000000000000e-01  0.0000000000000000e+00   2.5000000000000000e-01  4.3750000000000000e-01  0.0000000000000000e+00   3.1250000000000000e-01  4.3750000000000000e-01  0.0000000000000000e+00   3.7500000000000000e-01  4.3750000000000000e-01  0.0000000000000000e+00   4.3750000000000000e-01  4.3750000000000000e-01  0.0000000000000000e+00   5.0000000000000000e-01  4.3750000000000000e-01  0.0000000000000000e+00   5.6250000000000000e-01  4.3750000000000000e-01  0.0000000000000000e+00   6.2500000000000000e-01  4.3750000000000000e-01  0.0000000000000000e+00   6.8750000000000000e-01  4.3750000000000000e-01  0.0000000000000000e+00   7.5000000000000000e-01  4.3750000000000000e-01  0.0000000000000000e+00   8.1250000000000000e-01  4.3750000000000000e-01  0.0000000000000000e+00   8.7500000000000000e-01  4.3750000000000000e-01  0.0000000000000000e+00 
[...]
<PointData Scalars="scalars">
<DataArray type="Float64" Name="Solution Component 0 - ux" Format="ascii">  9.7323988777234510e-03   9.8762599803417037e-03  -3.4237457175738430e-03  -8.6084343018156123e-03  -1.2423003590298345e-02  -1.5444522960701342e-02  -1.7515528983810865e-02  -1.8689033299651794e-02  -1.8921345307131021e-02  -1.8138527914484961e-02  -1.6208326906784049e-02  -1.2806674655101056e-02  -7.3815845503666057e-03   1.8728550500208675e-03   1.6538264536236726e-02   3.7170127771277969e-02  -1.5026487172274651e-02  -4.4557864992586835e-02  -8.7875699689916417e-02  -9.9880041293765404e-02  -1.2990934632313100e-01  -1.4741443103507224e-01  -1.6340551760531999e-01  -1.7264714447025453e-01  -1.7573849799869531e-01  -1.7203062215727327e-01  -1.6169899491013170e-01  -1.4511295085868464e-01  -1.2302629986716937e-01  -9.6470362130477827e-02  -6.6985329097091456e-02  -3.5974137159663265e-02  -7.8184942868958079e-03  -4.8995495129282987e-02  -3.2507451511281274e-02  -1.3205070599411989e-01  -1.8305972372026996e-01  -2.3171782661448601e-01  -2.7963297219007083e-01  -3.1589294316221928e-01  -3.4147232758518387e-01  -3.5421149905191895e-01  -3.5359100214178196e-01  -3.3950364495886060e-01  -3.1250158392342731e-01  -2.7371849024604045e-01  -2.2489332155758218e-01  -1.6827753379249161e-01  -1.0704995374014681e-01  -4.5737153679509951e-02  -3.3121554889242781e-02  -3.3634779263890739e-02  -1.6407350593687636e-01  -2.5584787330094894e-01  -3.3542641716869737e-01  -4.0476881530371051e-01  -4.6287451857102224e-01  -5.0330873217690586e-01  -5.2512485120453278e-01  -5.2705836608549494e-01  -5.0898460791005984e-01  -4.7163865004693684e-01  -4.1659142338942401e-01  -3.4624039914819138e-01  -2.6368235233677284e-01  -1.7315885204600717e-01  -7.9467677665016223e-02  -1.8518347438711686e-02  -3.0909723463852727e-02  -1.9428074876660262e-01  -3.1446199313893064e-01  -4.2349361193828516e-01  -5.1698914902097093e-01  -5.9198680965799366e-01  -6.4667740397873053e-01  -6.7659413515317512e-01  -6.8103135640316648e-01  -6.5959559091672781e-01  -6.1320289995307042e-01  -5.4379891583812157e-01  -4.5435289226679859e-01  -3.4873349051222863e-01  -2.3193745763507539e-01  -1.0959705031795962e-01  -1.1449143156408223e-02  -2.7453784713814121e-02  -2.1585969755038145e-01  -3.6362516131880696e-01  -4.9413487417062513e-01  -6.0870811499119937e-01  -7.0013935241762559e-01  -7.6538052012956237e-01  -8.0275532096666680e-01  -8.0932134941413181e-01  -7.8530223834606538e-01  -7.3155024078552155e-01  -6.5034477790002077e-01  -5.4510464128440894e-01  -4.2028561280938881e-01  -2.8152075479711725e-01  -1.3470976569622789e-01  -6.3670575814204194e-03  -2.2712363991132772e-02  -2.2936996225886930e-01  -3.9860686122656858e-01  -5.4711163813801356e-01  -6.7649797801510381e-01  -7.8112060479557432e-01  -8.5575644648427385e-01  -8.9798486217522833e-01  -9.0676463842274679e-01  -8.8089468082793276e-01  -8.2179273055983593e-01  -7.3181387411860610e-01  -6.1472480826960874e-01  -4.7540283461813482e-01  -3.1987990796889337e-01  -1.5413474179305139e-01  -2.1919691192798076e-03  -1.7047645640570947e-02  -2.3384510567409633e-01  -4.1851375836102622e-01  -5.7908927227519502e-01  -7.1911669553787161e-01  -8.3169104931146565e-01  -9.1318343451253292e-01  -9.5942336583764432e-01  -9.6925373782886415e-01  -9.4274038286310469e-01  -8.8042530861686730e-01  -7.8508365493458565e-01  -6.6057836187168384e-01  -5.1203869686102399e-01  -3.4569035393268299e-01  -1.6728414675523151e-01   1.4469756958122096e-03  -1.0675560583493971e-02  -2.2922225523151030e-01  -4.2230991550282587e-01  -5.8894623232444210e-01  -7.3409983462426764e-01  -8.5083845558070581e-01  -9.3514246723553596e-01  -9.8406035219220944e-01  -9.9498030308036756e-01  -9.6823385347823143e-01  -9.0521235605754058e-01  -8.0807885072813779e-01  -6.8090132330337139e-01  -5.2880653099940200e-01  -3.5800017039321291e-01  -1.7375103321889152e-01   4.7636484436727553e-03  -3.8638560007441067e-03  -2.1565154880607934e-01  -4.0982056929538352e-01  -5.7616586360323840e-01  -7.2093372510296927e-01  -8.3724724372352344e-01  -9.2148900435841263e-01  -9.7047203026567219e-01  -9.8263187974512201e-01  -9.5688764758950073e-01  -8.9509358167210784e-01  -7.9993289796148415e-01  -6.7490845246581044e-01  -5.2507424198596053e-01  -3.5634835604833287e-01  -1.7330991887589092e-01   7.8268813652293007e-03   3.1016569917981227e-03  -1.9369082924462100e-01  -3.8148724188874089e-01  -5.4120089566659313e-01  -6.8003515462424080e-01  -7.9149014132384821e-01  -8.7234527766108305e-01  -9.1974315345541791e-01  -9.3203282483743299e-01  -9.0895880543093011e-01  -8.5087867603093281e-01  -7.6094188068964197e-01  -6.4283976649362129e-01  -5.0096907585392791e-01  -3.4077591454294742e-01  -1.6593150756703032e-01   1.0677965193874659e-02   1.0039274304325968e-02  -1.6414009312772607e-01  -3.3833492146757604e-01  -4.8532529250060052e-01  -6.1290319774978963e-01  -7.1522226250259657e-01  -7.8958885533004031e-01  -8.3351836407821378e-01  -8.4558653173395149e-01  -8.2548990857446181e-01  -7.7407327302621132e-01  -6.9293986197330093e-01  -5.8602281470864992e-01  -4.5746107686840043e-01  -3.1183745979598093e-01  -1.5177160341773893e-01   1.3396029374020837e-02   1.6396276624165793e-02  -1.2853345851118853e-01  -2.8226449591469527e-01  -4.1085497161519224e-01  -5.2220479225370409e-01  -6.1140167270258172e-01  -6.7636505910762756e-01  -7.1508928210341360e-01  -7.2641277087899270e-01  -7.1006929328520441e-01  -6.6680256471350119e-01  -5.9815150061574240e-01  -5.0676227166150545e-01  -3.9654717761317987e-01  -2.7064182687875027e-01  -1.3118282539788859e-01   1.6184320758680742e-02   2.3371633716248740e-02  -8.7237281155541774e-02  -2.1477208840978693e-01  -3.2015931116738272e-01  -4.1103307409903278e-01  -4.8369537109753596e-01  -5.3675100206377113e-01  -5.6876470549883873e-01  -5.7888370498982544e-01  -5.6691915828433315e-01  -5.3339181524131896e-01  -4.7963818355775190e-01  -4.0716185835660645e-01  -3.2002850565410690e-01  -2.1970209345303646e-01  -1.0430203742640427e-01   1.9087961476983703e-02   2.4039324475133871e-02  -4.8965582874920560e-02  -1.4359824495477561e-01  -2.2050170951809830e-01  -2.8618429928101463e-01  -3.3852325102057346e-01  -3.7687325269318783e-01  -4.0038732092436879e-01  -4.0851381808550635e-01  -4.0111175568814755e-01  -3.7849429666460710e-01  -3.4137172046677666e-01  -2.9117618374620580e-01  -2.2819287562747151e-01  -1.5856621381764935e-01  -7.3047657879150518e-02   2.4930715484600928e-02   4.1255858521259181e-02   2.8896001679971743e-03  -5.8735260436788075e-02  -1.0656969158862205e-01  -1.4651964511579893e-01  -1.7821070083299831e-01  -2.0159482969928635e-01  -2.1666768316656851e-01  -2.2320921711501110e-01  -2.2114779125004119e-01  -2.1054604056265683e-01  -1.9150549437941389e-01  -1.6419326222500896e-01  -1.2878512713806778e-01  -8.4090609835166696e-02  -3.2179526797544475e-02   2.9977196612475658e-02  -5.5437013358613590e-02  -5.8029327309142398e-02  -1.3660871196324437e-02   7.5316609126321356e-03   1.6496928960614467e-02   2.2038378558309750e-02   2.5575137882398319e-02   2.7467987936526234e-02   2.7991118211692371e-02   2.7169147839837631e-02   2.4953574967196537e-02   2.1039875227889238e-02   1.4858752082217945e-02   5.2158686513440067e-03  -1.8002372982252407e-02  -5.6566304310057318e-02  -5.3296672709595178e-02   3.6391049177938437e-02   9.1859472909815901e-02   9.4726511785562573e-02   1.1865815479363588e-01   1.3595936760934363e-01   1.5096799607739422e-01   1.6030567446806748e-01   1.6398384657172496e-01   1.6156940622079566e-01   1.5324190697010129e-01   1.3946636741792362e-01   1.2108479309476333e-01   9.9255995367064490e-02   7.5560048789592979e-02   5.0700081820457432e-02   2.5017891073616939e-02  -5.0642319246778002e-03  -6.8869892099278239e-03  -8.1417316937907255e-03  -3.7634774548504927e-03  -6.3074723549793104e-03  -4.5517449510829085e-03  -3.8874232069234706e-03  -2.8576070510974126e-03  -1.9673191082424249e-03  -1.0898010544174346e-03  -2.7192443328321030e-04   4.6539777054997213e-04   1.0472323405276360e-03   1.3097360472973576e-03   9.3008912456582927e-04  -9.5905130479923386e-04  -4.2661181580828057e-03  -9.6592719801669672e-03   2.1343628888208042e-03  -4.2505201771688678e-02  -7.6547156788968229e-02  -1.0013300020678188e-01  -1.2626771060678368e-01  -1.4501599904319051e-01  -1.5929920838346809e-01  -1.6745249111099883e-01  -1.6955835350427167e-01  -1.6548217427152853e-01  -1.5548167532044724e-01  -1.4002687012987625e-01  -1.1984971686207575e-01  -9.5861640225705647e-02  -6.9312614312660475e-02  -4.1151132252221410e-02  -9.6338308073314217e-03  -1.8246577232664705e-03  -7.9252180930089372e-02  -1.5361037997536958e-01  -2.0884889481497304e-01  -2.5587634022903571e-01  -2.9746858832419859e-01  -3.2662616488522267e-01  -3.4422659697539448e-01  -3.4895234715272411e-01  -3.4084186046038056e-01  -3.2021273807704836e-01  -2.8794107397145791e-01  -2.4534075871300948e-01  -1.9410319253845099e-01  -1.3634276169203721e-01  -7.4105455395347478e-02  -8.4362449895687610e-03  -2.6532346570618433e-03  -1.1305358579927820e-01  -2.1752503105440116e-01  -3.0437716339098664e-01  -3.7646293593812441e-01  -4.3522664115740306e-01  -4.7970201992098943e-01  -5.0570483660807031e-01  -5.1323643341410496e-01  -5.0170527464475279e-01  -4.7169938048869331e-01  -4.2439993170419360e-01  -3.6166882304656689e-01  -2.8588247918211779e-01  -1.9996541564718864e-01  -1.0675623093543311e-01  -9.6546451811368502e-03  -5.3978977170862372e-03  -1.4443860769140673e-01  -2.7720986685133153e-01  -3.8758151387029899e-01  -4.8288376671408417e-01  -5.5933250128456258e-01  -6.1508617720956449e-01  -6.4917312183096898e-01  -6.5871205812616207e-01  -6.4403142940499958e-01  -6.0550242625345607e-01  -5.4469676747453133e-01  -4.6392513347896081e-01  -3.6619933505886937e-01  -2.5515632692234819e-01  -1.3450616953372857e-01  -9.3219445984575322e-03  -7.7105609078489982e-03  -1.7057591712228498e-01  -3.2609899209906562e-01  -4.5727542946280680e-01  -5.6963843367468159e-01  -6.6145327467146597e-01  -7.2778865750648991e-01  -7.6721255194048688e-01  -7.7886930852432967e-01  -7.6135042544476927e-01  -7.1578571045399597e-01  -6.4377111469740278e-01  -5.4806584519896773e-01  -4.3217107536333943e-01  -3.0032926307807584e-01  -1.5696642486665519e-01  -8.6142946492143053e-03  -1.0004658696921041e-02  -1.9051772009720380e-01  -3.6305024045831191e-01  -5.0970544472494472e-01  -6.3554472217264668e-01  -7.3769972171940190e-01  -8.1256164738365810e-01  -8.5659484079424264e-01  -8.6890600099178783e-01  -8.4948349952660762e-01  -7.9841858494498907e-01  -7.1792334975046190e-01  -6.1089844186965703e-01  -4.8126935597804538e-01  -3.3371267685114991e-01  -1.7322330072124484e-01  -7.5127418280968184e-03  -1.1915956088131049e-02  -2.0321438238610623e-01  -3.8613457532200646e-01  -5.4285339837854629e-01  -6.7718921431798096e-01  -7.8626308277338541e-01  -8.6577705683877382e-01  -9.1327535828783923e-01  -9.2622335745627815e-01  -9.0491426849785628e-01  -8.5046721758753885e-01  -7.6444240653745010e-01  -6.5018489700776816e-01  -5.1176841411204033e-01  -3.5417933558249504e-01  -1.8277516296639196e-01  -6.1230743760036944e-03  -1.3357113173679398e-02  -2.0806927872095404e-01  -3.9439121400508759e-01  -5.5525244501352389e-01  -6.9305703465097490e-01  -8.0482166684925383e-01  -8.8632248946640324e-01  -9.3473120106330365e-01  -9.4847570068166198e-01  -9.2635248111445290e-01  -8.7001673902435828e-01  -7.8181491509754530e-01  -6.6459934249080876e-01  -5.2267374448259118e-01  -3.6107750789793391e-01  -1.8535174856778427e-01  -4.5349368446979494e-03  -1.4188322847349425e-02  -2.0477123213857301e-01  -3.8736470403914780e-01  -5.4634647872479547e-01  -6.8245283234322007e-01  -7.9276907730120361e-01  -8.7315986612968621e-01  -9.2094062371919250e-01  -9.3436176965417794e-01  -9.1307567770345444e-01  -8.5716384906842347e-01  -7.6962105741189124e-01  -6.5388559007915292e-01  -5.1379127924661883e-01  -3.5433611704848994e-01  -1.8098813462891686e-01  -2.8434706418520384e-03  -1.4259043552341212e-02  -1.9333005914276491e-01  -3.6524795645008190e-01  -5.1643142084001503e-01  -6.4580353611280861e-01  -7.5061683991369699e-01  -8.2698518893028405e-01  -8.7239591355613355e-01  -8.8523714615693228e-01  -8.6506983777586688e-01  -8.1265997199834872e-01  -7.2925260698469996e-01  -6.1890576505516570e-01  -4.8583791554749761e-01  -3.3450136178388162e-01  -1.7008293242398073e-01  -1.1516505638509101e-03  -1.3496990108808567e-02  -1.7407442005969409e-01  -3.2883874104418148e-01  -4.6666740255161521e-01  -5.8458319983770546e-01  -6.8011727159071056e-01  -7.4975614187005568e-01  -7.9124901324042751e-01  -8.0316178648108327e-01  -7.8507641255720306e-01  -7.3767927392616950e-01  -6.6258799196662677e-01  -5.6203840184161435e-01  -4.4063074005077457e-01  -3.0292553686827528e-01  -1.5349046496284141e-01   3.2409518494018669e-04  -1.1615922287077215e-02  -1.4782067291542611e-01  -2.7981605695751005e-01  -3.9929930420327731e-01  -5.0152116921789447e-01  -5.8437147960342573e-01  -6.4484851707327884e-01  -6.8103777881212491e-01  -6.9172099512045815e-01  -6.7655360151857169e-01  -6.3604973810010845e-01  -5.7168167675118287e-01  -4.8556418215496416e-01  -3.8079691973164276e-01  -2.6183230158946319e-01  -1.3258150164107416e-01   1.5410484048784530e-03  -9.1035094485951689e-03  -1.1564574708713893e-01  -2.2004675724067677e-01  -3.1693762965464750e-01  -3.9991734568146825e-01  -4.6729217290272268e-01  -5.1665299368926387e-01  -5.4646702975722594e-01  -5.5576734601384414e-01  -5.4426403625645037e-01  -5.1235829146237966e-01  -4.6112368886352112e-01  -3.9229954330105732e-01  -3.0800951626658024e-01  -2.1261172565601139e-01  -1.0937532186886126e-01   2.7928363431976551e-03  -3.7139681779448444e-04  -7.8969509668004742e-02  -1.5424794575684608e-01  -2.2546065175808097e-01  -2.8621435589629202e-01  -3.3551572387740342e-01  -3.7181735308076808e-01  -3.9405264259810124e-01  -4.0153933560218458e-01  -3.9405297813023321e-01  -3.7184134069017893e-01  -3.3560055780290871e-01  -2.8639148380510659e-01  -2.2567549771347592e-01  -1.5427142613349890e-01  -7.9449437976230622e-02   7.1052004602087555e-04   4.3368334704049813e-02  -2.4576831187101567e-02  -7.9164172091185120e-02  -1.2713532034222860e-01  -1.6580153550289983e-01  -1.9540689150802226e-01  -2.1607520737835276e-01  -2.2766611165347023e-01  -2.3014825932260341e-01  -2.2349278940513284e-01  -2.0777823921694458e-01  -1.8318100931122244e-01  -1.4964083490853314e-01  -1.0689971654137775e-01  -5.5631348313642193e-02   1.2298090752532551e-02   4.9017268653700534e-02   2.8655242085185349e-02   1.3381739475525267e-01   1.7500728767470417e-01   2.2593813468204427e-01   2.7041847307872935e-01   3.0703175668504451e-01   3.3273973557361247e-01   3.4620284725993339e-01   3.4678486944373121e-01   3.3445269333252370e-01   3.0983456741995147e-01   2.7416489245590120e-01   2.2928746816817050e-01   1.7751274462580557e-01   1.2161823342246200e-01   6.2332009578962927e-02  -5.8664184159443866e-03  -1.1158436593861133e-02   3.2863277283902058e-02   7.0923048847575651e-02   9.6409775605660886e-02   1.2337000621919357e-01   1.4479974843755891e-01   1.6088356213498772e-01   1.7074749562276120e-01   1.7409336912211859e-01   1.7083315425656984e-01   1.6114364306082091e-01   1.4542662656567668e-01   1.2425118803245488e-01   9.8287550019961395e-02   6.7995905846415100e-02   3.4109366739896750e-02  -2.4049463870198092e-03  -1.0141452090037667e-03  -1.6486735568925267e-03  -7.3410803036817653e-04   7.8706870341377876e-04  -1.2498760382211802e-03  -1.7156652441481166e-04  -3.4599541858776339e-05   4.2265108208062140e-04   7.6091417759859004e-04   1.0509074933820386e-03   1.2430667913382893e-03   1.3140616798333234e-03   1.2158894691062811e-03   8.4138009523400392e-04   4.4457217348390504e-05  -1.5164096504685851e-03  -2.4062034552260630e-03  -3.6419126596022983e-03  -3.6106632332660843e-02  -7.3890272724185108e-02  -1.0632047483219387e-01  -1.2881022738926043e-01  -1.5054725541621533e-01  -1.6482846876164964e-01  -1.7362858912489804e-01  -1.7586577825779404e-01  -1.7169980426649195e-01  -1.6127457436986789e-01  -1.4504255785834855e-01  -1.2365244560903746e-01  -9.7980541097692636e-02  -6.8936879173510379e-02  -3.7678621550818303e-02  -4.3989492671452904e-03  -3.2010276267776371e-03  -7.1284927144720012e-02  -1.4094437731428083e-01  -2.0731691624854179e-01  -2.5678584535323395e-01  -2.9625327968394616e-01  -3.2723459810104688e-01  -3.4504741249746024e-01  -3.5042634307351250e-01  -3.4277342298706653e-01  -3.2250211294286546e-01  -2.9037981520425643e-01  -2.4762203630551549e-01  -1.9581556649270401e-01  -1.3673223566796500e-01  -7.2553341220472078e-02  -3.9767244989702445e-03  -4.0055088345823994e-03  -1.0366327743414697e-01  -2.0436753994383011e-01  -2.9753459512211899e-01  -3.7300811904911485e-01  -4.3234636363639711e-01  -4.7579188073147982e-01  -5.0283935563875304e-01  -5.1074885315201812e-01  -4.9995042527913169e-01  -4.7063336139635359e-01  -4.2394884740429895e-01  -3.6159469648694936e-01  -2.8581422774359322e-01  -1.9915813662713283e-01  -1.0461436990849389e-01  -4.1665566185129770e-03  -4.7393846345217148e-03  -1.3298584455360524e-01  -2.6036107397834846e-01  -3.7834896920756317e-01  -4.7384666781492280e-01  -5.5140741522746317e-01  -6.0755506783890545e-01  -6.4111333932511561e-01  -6.5176865404578577e-01  -6.3795314917073420e-01  -6.0067273509518337e-01  -5.4113055389426934e-01  -4.6150933837018315e-01  -3.6461606440091576e-01  -2.5367742181014102e-01  -1.3248022195953743e-01  -3.9689768525814333e-03  -5.4642907560591286e-03  -1.5737274491468173e-01  -3.0678145715127986e-01  -4.4462256692874230e-01  -5.5753010881421528e-01  -6.4858267031348293e-01  -7.1577373537521405e-01  -7.5557237750092432e-01  -7.6744679489779477e-01  -7.5147948495945605e-01  -7.0748320578856272e-01  -6.3736868627142462e-01  -5.4352067148900840e-01  -4.2924672476056780e-01  -2.9832740913143940e-01  -1.5518234754132654e-01  -3.7038226287020391e-03  -6.0355493752651404e-03  -1.7588976329183834e-01  -3.4161776546200034e-01  -4.9424844950937141e-01  -6.1999645092244349e-01  -7.2165536252218798e-01  -7.9620671800868836e-01  -8.4126944529194647e-01  -8.5447361588095760e-01  -8.3613743265357354e-01  -7.8729356637042902e-01  -7.0913854354896144e-01  -6.0462963092431821e-01  -4.7732360581646227e-01  -3.3144036215253975e-01  -1.7188264972764511e-01  -3.3091439264497143e-03  -6.3849866773424014e-03  -1.8768924287878247e-01  -3.6343837584712468e-01  -5.2508357816251161e-01  -6.5905910033099824e-01  -7.6733504172688405e-01  -8.4684637609772029e-01  -8.9464066788099339e-01  -9.0936976419817062e-01  -8.8966872278350817e-01  -8.3716110887714557e-01  -7.5401670861351910e-01  -6.4270899094305767e-01  -5.0718830973582241e-01  -3.5188076008572006e-01  -1.8201497063053701e-01  -2.8350648663390595e-03  -6.4437297612426224e-03  -1.9225249268815670e-01  -3.7133893179280497e-01  -5.3594884722427505e-01  -6.7318369220065877e-01  -7.8411854698418715e-01  -8.6556210724347604e-01  -9.1463247917926049e-01  -9.2965228249071707e-01  -9.1024217845181021e-01  -8.5620897145512254e-01  -7.7057724085885648e-01  -6.5664634549518131e-01  -5.1793144781242806e-01  -3.5903681565228690e-01  -1.8528753599800327e-01  -2.3180252041008036e-03  -6.1326112093161396e-03  -1.8934200165812731e-01  -3.6499847799772539e-01  -5.2645428480521916e-01  -6.6194335968416851e-01  -7.7150911566891200e-01  -8.5198590712961031e-01  -9.0053957911477711e-01  -9.1557867212260635e-01  -8.9654921256386699e-01  -8.4418922865062318e-01  -7.5936015879933794e-01  -6.4639525235319883e-01  -5.0954155271782176e-01  -3.5291229948118907e-01  -1.8175978543729870e-01  -1.8441273343229982e-03  -5.3749871873463931e-03  -1.7898006626077342e-01  -3.4465237794807324e-01  -4.9705210613531997e-01  -6.2594605308808127e-01  -7.3026800854331808e-01  -8.0697882346444705e-01  -8.5339329387663154e-01  -8.6800260654463890e-01  -8.5029168285730850e-01  -8.0088177054210741e-01  -7.2145053228836864e-01  -6.1371580678629689e-01  -4.8305608254385518e